# Projected DOS for atomic kind Mo at iteration step i = 0, E(Fermi) =    -0.154978 a.u.
#     MO Eigenvalue [a.u.]      Occupation                 s                 p                 d                 f
       1         -2.386267        2.000000        0.84606495        0.01113509        0.02877789        0.01409380
       2         -2.385653        2.000000        0.80618267        0.04942521        0.01699155        0.05767381
       3         -2.385538        2.000000        0.80013583        0.05753291        0.01428967        0.06168798
       4         -2.385468        2.000000        0.79378280        0.06160028        0.01288470        0.06390788
       5         -2.385340        2.000000        0.79320616        0.05197277        0.01377903        0.07765639
       6         -2.385266        2.000000        0.79231513        0.06139582        0.01289905        0.06816794
       7         -2.385150        2.000000        0.79307603        0.05203418        0.01319980        0.07813072
       8         -2.384861        2.000000        0.81028198        0.01864055        0.02351363        0.08867359
       9         -2.384751        2.000000        0.82555451        0.00933626        0.03060203        0.07575916
      10         -2.384695        2.000000        0.77831691        0.01943479        0.01298006        0.14169683
      11         -2.384463        2.000000        0.81441221        0.01270844        0.02757485        0.08700657
      12         -2.384318        2.000000        0.81993975        0.01675255        0.02889139        0.07316672
      13         -2.384182        2.000000        0.77967070        0.01654672        0.01319636        0.14303706
      14         -2.384042        2.000000        0.80225016        0.01505384        0.02161299        0.10644378
      15         -2.383847        2.000000        0.80849498        0.01384294        0.02496376        0.08830261
      16         -2.382974        2.000000        0.79958718        0.02184106        0.02266025        0.09997073
      17         -1.447748        2.000000        0.00033993        0.90388583        0.00176215        0.04995364
      18         -1.447443        2.000000        0.00035610        0.90410095        0.00143079        0.05107550
      19         -1.447380        2.000000        0.00015370        0.90241017        0.00086904        0.05368970
      20         -1.445496        2.000000        0.00173597        0.92954748        0.01361853        0.00634682
      21         -1.445332        2.000000        0.00191983        0.93058417        0.01387238        0.00403053
      22         -1.444479        2.000000        0.00178960        0.93070230        0.01360598        0.00645637
      23         -1.444108        2.000000        0.00189759        0.93343923        0.01423328        0.00307651
      24         -1.443655        2.000000        0.00196795        0.93452692        0.01299809        0.00399464
      25         -1.443547        2.000000        0.00186015        0.93415371        0.01375362        0.00396286
      26         -1.440685        2.000000        0.00110384        0.92901899        0.00135444        0.02827433
      27         -1.440577        2.000000        0.00707173        0.93865879        0.00394726        0.01098120
      28         -1.440205        2.000000        0.00709192        0.94087235        0.00394864        0.01095000
      29         -1.439875        2.000000        0.00572213        0.93924086        0.00411839        0.01286309
      30         -1.439584        2.000000        0.00432352        0.93742504        0.00591454        0.01176076
      31         -1.439402        2.000000        0.00141614        0.93673561        0.00821214        0.01194531
      32         -1.439299        2.000000        0.00276515        0.93970507        0.00718532        0.01165157
      33         -1.439176        2.000000        0.00031980        0.93310854        0.00871638        0.01251056
      34         -1.439109        2.000000        0.00188020        0.93683209        0.00742629        0.01205395
      35         -1.438915        2.000000        0.00049570        0.93788055        0.00879956        0.01149028
      36         -1.438750        2.000000        0.00375748        0.94059345        0.00655877        0.01105796
      37         -1.438592        2.000000        0.00237890        0.94195733        0.00734916        0.01127643
      38         -1.438570        2.000000        0.00136046        0.93922708        0.00757058        0.01166612
      39         -1.438261        2.000000        0.00112511        0.94366742        0.00766461        0.01088320
      40         -1.438149        2.000000        0.00064821        0.94113780        0.00844730        0.01135813
      41         -1.438095        2.000000        0.00281771        0.94480381        0.00698206        0.00997491
      42         -1.437917        2.000000        0.00165673        0.94549749        0.00763421        0.01031463
      43         -1.437711        2.000000        0.00011967        0.94195601        0.00260269        0.01444286
      44         -1.437485        2.000000        0.00021208        0.94332340        0.00195479        0.01585279
      45         -1.437426        2.000000        0.00028178        0.94460891        0.00469150        0.01263758
      46         -1.437172        2.000000        0.00053246        0.94534873        0.00404526        0.01303534
      47         -1.437110        2.000000        0.00011909        0.94380339        0.00180711        0.01551564
      48         -1.436974        2.000000        0.00026367        0.94510734        0.00291946        0.01281574
      49         -1.436897        2.000000        0.00012083        0.94502439        0.00234587        0.01332159
      50         -1.436783        2.000000        0.00015713        0.94479750        0.00224008        0.01605459
      51         -1.436669        2.000000        0.00018636        0.94522329        0.00212145        0.01314725
      52         -1.436245        2.000000        0.00038012        0.95288613        0.00849684        0.00993264
      53         -1.435894        2.000000        0.00009696        0.94377821        0.00231657        0.01442675
      54         -1.434987        2.000000        0.00003671        0.96170824        0.00073136        0.01336659
      55         -1.434796        2.000000        0.00023856        0.96097433        0.00112780        0.01329332
      56         -1.434460        2.000000        0.00018533        0.96232209        0.00124665        0.01344403
      57         -1.433334        2.000000        0.00018401        0.97058226        0.00081815        0.00611312
      58         -1.433262        2.000000        0.00011275        0.97036746        0.00098382        0.00615396
      59         -1.432990        2.000000        0.00028437        0.97128689        0.00076043        0.00601694
      60         -1.432608        2.000000        0.00005377        0.97289171        0.00088669        0.00570296
      61         -1.432339        2.000000        0.00013682        0.97191352        0.00093761        0.00636316
      62         -1.432110        2.000000        0.00008467        0.97313625        0.00094325        0.00562417
      63         -1.430897        2.000000        0.00013103        0.97798486        0.00024398        0.00302779
      64         -1.430679        2.000000        0.00019444        0.97856709        0.00037706        0.00309053
      65         -0.678756        2.000000        0.43325411        0.00254748        0.00325608        0.02287586
      66         -0.650196        2.000000        0.16978502        0.25719771        0.06242520        0.05915294
      67         -0.648231        2.000000        0.16685374        0.25951120        0.06112992        0.06080600
      68         -0.647054        2.000000        0.16614368        0.25690786        0.06099495        0.06075419
      69         -0.646105        2.000000        0.16325254        0.25882772        0.06150766        0.06301386
      70         -0.645668        2.000000        0.16116228        0.25881073        0.06612887        0.06194312
      71         -0.644226        2.000000        0.16178947        0.25525836        0.06086414        0.06308734
      72         -0.627533        2.000000        0.00279104        0.42797207        0.00659800        0.19084633
      73         -0.618680        2.000000        0.00123380        0.23130906        0.23760345        0.12950957
      74         -0.617777        2.000000        0.00252896        0.23246930        0.23204533        0.13027194
      75         -0.616632        2.000000        0.00076014        0.23647582        0.22706267        0.12986879
      76         -0.615559        2.000000        0.00197329        0.23228224        0.22975538        0.12854122
      77         -0.614014        2.000000        0.00392807        0.22622136        0.22674374        0.13313511
      78         -0.612539        2.000000        0.00801351        0.22028313        0.22009545        0.14410722
      79         -0.610432        2.000000        0.02551569        0.22589353        0.19068736        0.14086985
      80         -0.609165        2.000000        0.01920757        0.19387564        0.22557176        0.14672985
      81         -0.608722        2.000000        0.02633676        0.22804219        0.18187008        0.14258865
      82         -0.607849        2.000000        0.02336720        0.20770182        0.19334617        0.16164186
      83         -0.606984        2.000000        0.02254289        0.19539759        0.21450314        0.14958547
      84         -0.606140        2.000000        0.02253911        0.19351091        0.19756354        0.17218435
      85         -0.605626        2.000000        0.01684145        0.15787659        0.22904982        0.18620761
      86         -0.604646        2.000000        0.01391629        0.13206610        0.26054380        0.18443786
      87         -0.603320        2.000000        0.02166714        0.17931539        0.20572649        0.17454322
      88         -0.602759        2.000000        0.02383659        0.18274715        0.20056310        0.16775740
      89         -0.601623        2.000000        0.00181579        0.04212890        0.34264171        0.21704375
      90         -0.601083        2.000000        0.00213938        0.05187306        0.32549009        0.22432948
      91         -0.599853        2.000000        0.00222449        0.04428340        0.34687704        0.19965091
      92         -0.598578        2.000000        0.00359167        0.05167288        0.34267752        0.18923878
      93         -0.597036        2.000000        0.00230237        0.05207036        0.30391496        0.24251353
      94         -0.596257        2.000000        0.00211568        0.04542707        0.30254618        0.25417817
      95         -0.593581        2.000000        0.00232788        0.04806053        0.29942989        0.24261448
      96         -0.592229        2.000000        0.00240885        0.04884445        0.28331596        0.26205326
      97         -0.373407        2.000000        0.07131271        0.06865149        0.24495624        0.08901267
      98         -0.373009        2.000000        0.07148037        0.07100901        0.23786695        0.09036759
      99         -0.372621        2.000000        0.07137713        0.07207925        0.23687423        0.08985431
     100         -0.367374        2.000000        0.05966786        0.00263189        0.41096724        0.00950255
     101         -0.352959        2.000000        0.03705143        0.05649153        0.30545081        0.10042295
     102         -0.351735        2.000000        0.03684435        0.05309139        0.30435356        0.10319320
     103         -0.350306        2.000000        0.03522408        0.05938031        0.30459537        0.10168139
     104         -0.349739        2.000000        0.02902916        0.04983477        0.31983668        0.10723764
     105         -0.348461        2.000000        0.03400518        0.05810859        0.30210504        0.10657581
     106         -0.347976        2.000000        0.02563331        0.04727312        0.32675400        0.10923481
     107         -0.346328        2.000000        0.01713692        0.03266220        0.35441535        0.11584180
     108         -0.345914        2.000000        0.02036597        0.03841822        0.34153349        0.11570938
     109         -0.345376        2.000000        0.01030385        0.02223687        0.37408617        0.11875997
     110         -0.344869        2.000000        0.01525548        0.02287040        0.38970452        0.10944566
     111         -0.344140        2.000000        0.00818130        0.01749481        0.37450346        0.12589262
     112         -0.343947        2.000000        0.01250918        0.02361455        0.36675514        0.12167670
     113         -0.342776        2.000000        0.00881233        0.02071225        0.36522911        0.12944735
     114         -0.342166        2.000000        0.00583130        0.01905348        0.37105657        0.12806729
     115         -0.341481        2.000000        0.00585383        0.01829087        0.36781669        0.13146291
     116         -0.339871        2.000000        0.01073501        0.02417088        0.36027070        0.12834404
     117         -0.338477        2.000000        0.00495682        0.03425311        0.31324011        0.15750546
     118         -0.337903        2.000000        0.00392432        0.02796700        0.33484516        0.14793509
     119         -0.334962        2.000000        0.00314269        0.07716162        0.17659908        0.22387543
     120         -0.334022        2.000000        0.00586160        0.07151608        0.19284676        0.21350533
     121         -0.333300        2.000000        0.00345903        0.06833873        0.19769545        0.21462184
     122         -0.309502        2.000000        0.00186023        0.02226101        0.38627406        0.05432525
     123         -0.309096        2.000000        0.00204530        0.02225557        0.39438696        0.05437603
     124         -0.307728        2.000000        0.00215976        0.02384203        0.38653280        0.05298110
     125         -0.301182        2.000000        0.06256120        0.06020182        0.23924706        0.11985637
     126         -0.300513        2.000000        0.06278927        0.05780291        0.23641180        0.12187206
     127         -0.299907        2.000000        0.06272245        0.05969451        0.22940008        0.12182406
     128         -0.298883        2.000000        0.05911590        0.05790498        0.24780518        0.11538573
     129         -0.297345        2.000000        0.04606076        0.05146170        0.24671083        0.12062708
     130         -0.295031        2.000000        0.00768981        0.04288408        0.27996980        0.12246715
     131         -0.294689        2.000000        0.03326763        0.04377340        0.24110856        0.13519317
     132         -0.293606        2.000000        0.03012507        0.04505213        0.24930688        0.12955269
     133         -0.292948        2.000000        0.03126316        0.04780856        0.25513609        0.12527675
     134         -0.292254        2.000000        0.01757162        0.03462488        0.23604460        0.14163968
     135         -0.291074        2.000000        0.01871456        0.03638229        0.22671788        0.14272302
     136         -0.290286        2.000000        0.03619313        0.02487601        0.15454971        0.17100757
     137         -0.289440        2.000000        0.03479542        0.02845515        0.17383953        0.16621196
     138         -0.288454        2.000000        0.03475338        0.02582877        0.15316572        0.16938565
     139         -0.287546        2.000000        0.03814082        0.02808430        0.15714926        0.16855705
     140         -0.287163        2.000000        0.01600861        0.03803962        0.23555933        0.13671128
     141         -0.286150        2.000000        0.02542801        0.03562030        0.16998544        0.16374089
     142         -0.285452        2.000000        0.01680876        0.03698806        0.21438667        0.14666183
     143         -0.281662        2.000000        0.00254281        0.06050539        0.22450251        0.10274020
     144         -0.280764        2.000000        0.00325781        0.06447791        0.22419027        0.10029374
     145         -0.277892        2.000000        0.00150357        0.03723560        0.35070877        0.05054289
     146         -0.276733        2.000000        0.00185852        0.04907412        0.32098340        0.05964803
     147         -0.275719        2.000000        0.00065137        0.06215395        0.26635542        0.07989131
     148         -0.274592        2.000000        0.00148512        0.04134433        0.31309336        0.06685126
     149         -0.272758        2.000000        0.00086188        0.03641335        0.34570901        0.05359225
     150         -0.272118        2.000000        0.00085520        0.06168951        0.27686042        0.07657384
     151         -0.269770        2.000000        0.00160153        0.09078863        0.25847434        0.07730039
     152         -0.267711        2.000000        0.00155062        0.08293025        0.24886425        0.08232874
     153         -0.265939        2.000000        0.00366105        0.12413779        0.22746198        0.08632878
     154         -0.264609        2.000000        0.00455208        0.12713018        0.24207150        0.08281119
     155         -0.264325        2.000000        0.00493661        0.11371908        0.25943100        0.07920991
     156         -0.262664        2.000000        0.00434054        0.12509310        0.25049720        0.08197059
     157         -0.260166        2.000000        0.00458381        0.11530911        0.27188201        0.07567459
     158         -0.254609        2.000000        0.00084888        0.01270544        0.51573942        0.02586920
     159         -0.253159        2.000000        0.00105526        0.01770135        0.50682001        0.02887539
     160         -0.251258        2.000000        0.00095746        0.01100322        0.49235900        0.03000788
     161         -0.250265        2.000000        0.00041048        0.01015493        0.50212856        0.02744403
     162         -0.249422        2.000000        0.00020400        0.00569965        0.46034417        0.03391432
     163         -0.247027        2.000000        0.00021854        0.00406926        0.45821231        0.03362718
     164         -0.246049        2.000000        0.00099569        0.00933492        0.45070406        0.03680268
     165         -0.244398        2.000000        0.00042664        0.00613788        0.44860673        0.03777492
     166         -0.227822        2.000000        0.00022459        0.03711752        0.20708235        0.05881683
     167         -0.226875        2.000000        0.00022603        0.03700200        0.19391987        0.04757016
     168         -0.226117        2.000000        0.00019390        0.03113257        0.22223084        0.03850893
     169         -0.224510        2.000000        0.00042051        0.03161379        0.30851429        0.05184807
     170         -0.223634        2.000000        0.00032334        0.03610931        0.32034071        0.06014524
     171         -0.222544        2.000000        0.00065883        0.03243351        0.38647395        0.06893512
     172         -0.222281        2.000000        0.00012468        0.05831030        0.18483912        0.10215693
     173         -0.221106        2.000000        0.00034960        0.03614516        0.34140758        0.06981037
     174         -0.220804        2.000000        0.00042083        0.03511839        0.35713305        0.07306768
     175         -0.218235        2.000000        0.00015355        0.04668592        0.19108536        0.03654964
     176         -0.217336        2.000000        0.00016359        0.05395659        0.13496882        0.03596243
     177         -0.216906        2.000000        0.00039739        0.03008332        0.35880989        0.06539147
     178         -0.215759        2.000000        0.00035128        0.04160901        0.19340466        0.02964178
     179         -0.214574        2.000000        0.00021717        0.04207669        0.21460455        0.03703535
     180         -0.212899        2.000000        0.00024203        0.04838940        0.17509423        0.04411646
     181         -0.211341        2.000000        0.00019484        0.03531506        0.25821009        0.04870152
     182         -0.209025        2.000000        0.00017118        0.05366151        0.11561822        0.04634031
     183         -0.206606        2.000000        0.00031599        0.02334162        0.35317670        0.04789635
     184         -0.204846        2.000000        0.00022031        0.05665600        0.08189004        0.07806668
     185         -0.204362        2.000000        0.00032523        0.05563842        0.08838673        0.07125180
     186         -0.203601        2.000000        0.00024335        0.05784112        0.06313026        0.08577093
     187         -0.202167        2.000000        0.00030966        0.05582012        0.08284356        0.07914829
     188         -0.198954        2.000000        0.00046685        0.05743945        0.06680528        0.08450155
     189         -0.197407        2.000000        0.00046257        0.05554928        0.07906414        0.08809351
     190         -0.193960        2.000000        0.00236933        0.04921982        0.20072936        0.11489017
     191         -0.190913        2.000000        0.00194512        0.04984072        0.16890565        0.12500682
     192         -0.189565        2.000000        0.00099192        0.05210113        0.13414477        0.12822340
     193         -0.185643        2.000000        0.00560986        0.02590112        0.56035824        0.06351909
     194         -0.184571        2.000000        0.00605620        0.03145573        0.56543937        0.06537909
     195         -0.182713        2.000000        0.00649868        0.02632891        0.52511553        0.06710361
     196         -0.182304        2.000000        0.00848509        0.01903613        0.57411046        0.05989323
     197         -0.181069        2.000000        0.00698868        0.02361281        0.54795196        0.06994356
     198         -0.179889        2.000000        0.00583843        0.04378889        0.51203142        0.07450155
     199         -0.179184        2.000000        0.00476367        0.05092808        0.51373394        0.07749553
     200         -0.178342        2.000000        0.00406393        0.07153728        0.47410234        0.09609509
     201         -0.177513        2.000000        0.00482903        0.03742388        0.53081411        0.09305867
     202         -0.176186        2.000000        0.00561958        0.02369039        0.57843224        0.08512484
     203         -0.175633        2.000000        0.00406992        0.07575532        0.44712982        0.09435816
     204         -0.172101        2.000000        0.00471961        0.01248827        0.58911947        0.09141325
     205         -0.172069        2.000000        0.00423052        0.03391842        0.56018804        0.09257483
     206         -0.169287        2.000000        0.00442137        0.01026188        0.58909713        0.09372713
     207         -0.168166        2.000000        0.00454018        0.01917801        0.57281125        0.10009871
     208         -0.154978        2.000000        0.00987598        0.00187063        0.58803111        0.00940221
