 DBCSR| CPU Multiplication driver                                           XSMM (U)
 DBCSR| Multrec recursion limit                                              512 (U)
 DBCSR| Multiplication stack size                                           1000 (D)
 DBCSR| Maximum elements for images                                    UNLIMITED (U)
 DBCSR| Multiplicative factor virtual images                                   1 (U)
 DBCSR| Use multiplication densification                                       T (D)
 DBCSR| Multiplication size stacks                                             3 (U)
 DBCSR| Use memory pool for CPU allocation                                     F (U)
 DBCSR| Number of 3D layers                                               SINGLE (U)
 DBCSR| Use MPI memory allocation                                              F (U)
 DBCSR| Use RMA algorithm                                                      F (U)
 DBCSR| Use Communication thread                                               T (U)
 DBCSR| Communication thread load                                             60 (D)
 DBCSR| MPI: My process id                                                     0
 DBCSR| MPI: Number of processes                                               1
 DBCSR| OMP: Current number of threads                                         8
 DBCSR| OMP: Max number of threads                                             8
 DBCSR| Split modifier for TAS multiplication algorithm                  1.0E+00 (U)


  **** **** ******  **  PROGRAM STARTED AT               2025-07-18 23:29:50.730
 ***** ** ***  *** **   PROGRAM STARTED ON                           della-h16n1
 **    ****   ******    PROGRAM STARTED BY                                yp1065
 ***** **    ** ** **   PROGRAM PROCESS ID                               2136467
  **** **  *******  **  PROGRAM STARTED IN                             /host_pwd

 CP2K| version string:                                       CP2K version 2025.1
 CP2K| source code revision number:                                  git:9635df4
 CP2K| cp2kflags: omp libint fftw3 libxc libgrpp pexsi elpa parallel scalapack m
 CP2K|            pi_f08 cosma quip xsmm plumed2 spglib libdftd4 sirius libvori
 CP2K|             libbqb libtorch libvdwxc hdf5 trexio
 CP2K| is freely available from                            https://www.cp2k.org/
 CP2K| Program compiled at                          Tue Jan 14 13:47:13 UTC 2025
 CP2K| Program compiled on                                          425cf7ba4233
 CP2K| Program compiled for                                                local
 CP2K| Data directory path                                        /opt/cp2k/data
 CP2K| Input file name                                                 eq_MD.inp

 GLOBAL| Force Environment number                                              1
 GLOBAL| Basis set file name                                    BASIS_MOLOPT_UZH
 GLOBAL| Potential file name                                       POTENTIAL_UZH
 GLOBAL| MM Potential file name                                     MM_POTENTIAL
 GLOBAL| Coordinate file name                                       init_crd.xyz
 GLOBAL| Method name                                                        CP2K
 GLOBAL| Project name                                                      eq_MD
 GLOBAL| Run type                                                             MD
 GLOBAL| FFT library                                                       FFTW3
 GLOBAL| Diagonalization library                                            ELPA
 GLOBAL| DGEMM library                                                      BLAS
 GLOBAL| Minimum number of eigenvectors for ELPA usage                        16
 GLOBAL| Orthonormality check for eigenvectors                          DISABLED
 GLOBAL| Matrix multiplication library                                     COSMA
 GLOBAL| All-to-all communication in single precision                          F
 GLOBAL| FFTs using library dependent lengths                                  F
 GLOBAL| Grid backend                                                       AUTO
 GLOBAL| Global print level                                                DEBUG
 GLOBAL| MPI I/O enabled                                                       T
 GLOBAL| Total number of message passing processes                             1
 GLOBAL| Number of threads for this process                                    8
 GLOBAL| This output is from process                                           0
 GLOBAL| OpenMP stack size per thread (OMP_STACKSIZE)                    default
 GLOBAL| CPU model name                          AMD EPYC 9654 96-Core Processor
 GLOBAL| CPUID                                                              1003
 GLOBAL| Compiled for CPUID                                                    0

 *** HINT in environment.F:928 :: The compiler target flags (generic) used ***
 *** to build this binary cannot exploit all extensions of this CPU model  ***
 *** (x86_avx512). Consider compiler target flags as part of FCFLAGS and   ***
 *** CFLAGS (ARCH file).                                                   ***


 MEMORY| system memory details [Kb]
 MEMORY|                        rank 0           min           max       average
 MEMORY| MemTotal           1584164380    1584164380    1584164380    1584164380
 MEMORY| MemFree             375524472     375524472     375524472     375524472
 MEMORY| Buffers                  4364          4364          4364          4364
 MEMORY| Cached              632968196     632968196     632968196     632968196
 MEMORY| Slab                  7098824       7098824       7098824       7098824
 MEMORY| SReclaimable          3961336       3961336       3961336       3961336
 MEMORY| MemLikelyFree      1012458368    1012458368    1012458368    1012458368


 *** Fundamental physical constants (SI units) ***

 *** Literature: B. J. Mohr and B. N. Taylor,
 ***             CODATA recommended values of the fundamental physical
 ***             constants: 2006, Web Version 5.1
 ***             http://physics.nist.gov/constants

 Speed of light in vacuum [m/s]                             2.99792458000000E+08
 Magnetic constant or permeability of vacuum [N/A**2]       1.25663706143592E-06
 Electric constant or permittivity of vacuum [F/m]          8.85418781762039E-12
 Planck constant (h) [J*s]                                  6.62606896000000E-34
 Planck constant (h-bar) [J*s]                              1.05457162825177E-34
 Elementary charge [C]                                      1.60217648700000E-19
 Electron mass [kg]                                         9.10938215000000E-31
 Electron g factor [ ]                                     -2.00231930436220E+00
 Proton mass [kg]                                           1.67262163700000E-27
 Fine-structure constant                                    7.29735253760000E-03
 Rydberg constant [1/m]                                     1.09737315685270E+07
 Avogadro constant [1/mol]                                  6.02214179000000E+23
 Boltzmann constant [J/K]                                   1.38065040000000E-23
 Atomic mass unit [kg]                                      1.66053878200000E-27
 Bohr radius [m]                                            5.29177208590000E-11

 *** Conversion factors ***

 [u] -> [a.u.]                                              1.82288848426455E+03
 [Angstrom] -> [Bohr] = [a.u.]                              1.88972613288564E+00
 [a.u.] = [Bohr] -> [Angstrom]                              5.29177208590000E-01
 [a.u.] -> [s]                                              2.41888432650478E-17
 [a.u.] -> [fs]                                             2.41888432650478E-02
 [a.u.] -> [J]                                              4.35974393937059E-18
 [a.u.] -> [N]                                              8.23872205491840E-08
 [a.u.] -> [K]                                              3.15774647902944E+05
 [a.u.] -> [kJ/mol]                                         2.62549961709828E+03
 [a.u.] -> [kcal/mol]                                       6.27509468713739E+02
 [a.u.] -> [Pa]                                             2.94210107994716E+13
 [a.u.] -> [bar]                                            2.94210107994716E+08
 [a.u.] -> [atm]                                            2.90362800883016E+08
 [a.u.] -> [eV]                                             2.72113838565563E+01
 [a.u.] -> [Hz]                                             6.57968392072181E+15
 [a.u.] -> [1/cm] (wave numbers)                            2.19474631370540E+05
 [a.u./Bohr**2] -> [1/cm]                                   5.14048714338585E+03
 

 CELL_TOP| Volume [angstrom^3]:                                      6889.835644
 CELL_TOP| Vector a [angstrom    12.614     0.000     0.000   |a| =    12.614037
 CELL_TOP| Vector b [angstrom    -6.307    10.924     0.000   |b| =    12.614037
 CELL_TOP| Vector c [angstrom     0.000     0.000    50.000   |c| =    50.000000
 CELL_TOP| Angle (b,c), alpha [degree]:                                90.000000
 CELL_TOP| Angle (a,c), beta  [degree]:                                90.000000
 CELL_TOP| Angle (a,b), gamma [degree]:                               120.000000
 CELL_TOP| Numerically orthorhombic:                                          NO
 CELL_TOP| Periodicity                                                       XYZ


 SUBCELL GRID  INFO FOR THE NONBONDED NEIGHBOR LISTS

    NUMBER OF SUBCELLS             ::                   4         4        17
    NUMBER OF PERIODIC      IMAGES ::                   1         1         1
    NUMBER OF INTERACTING SUBCELLS ::                   2         2         2

 GENERATE|  Preliminary Number of Bonds generated:                             0
 GENERATE|  Achieved consistency in connectivity generation.

 CELL| Volume [angstrom^3]:                                          6889.835644
 CELL| Vector a [angstrom]:      12.614     0.000     0.000   |a| =    12.614037
 CELL| Vector b [angstrom]:      -6.307    10.924     0.000   |b| =    12.614037
 CELL| Vector c [angstrom]:       0.000     0.000    50.000   |c| =    50.000000
 CELL| Angle (b,c), alpha [degree]:                                    90.000000
 CELL| Angle (a,c), beta  [degree]:                                    90.000000
 CELL| Angle (a,b), gamma [degree]:                                   120.000000
 CELL| Numerically orthorhombic:                                              NO
 CELL| Periodicity                                                           XYZ

 CELL_REF| Volume [angstrom^3]:                                      6889.835644
 CELL_REF| Vector a [angstrom    12.614     0.000     0.000   |a| =    12.614037
 CELL_REF| Vector b [angstrom    -6.307    10.924     0.000   |b| =    12.614037
 CELL_REF| Vector c [angstrom     0.000     0.000    50.000   |c| =    50.000000
 CELL_REF| Angle (b,c), alpha [degree]:                                90.000000
 CELL_REF| Angle (a,c), beta  [degree]:                                90.000000
 CELL_REF| Angle (a,b), gamma [degree]:                               120.000000
 CELL_REF| Numerically orthorhombic:                                          NO
 CELL_REF| Periodicity                                                       XYZ

 *******************************************************************************
 *******************************************************************************
 **                                                                           **
 **     #####                         ##              ##                      **
 **    ##   ##            ##          ##              ##                      **
 **   ##     ##                       ##            ######                    **
 **   ##     ##  ##   ##  ##   #####  ##  ##   ####   ##    #####    #####    **
 **   ##     ##  ##   ##  ##  ##      ## ##   ##      ##   ##   ##  ##   ##   **
 **   ##  ## ##  ##   ##  ##  ##      ####     ###    ##   ######   ######    **
 **    ##  ###   ##   ##  ##  ##      ## ##      ##   ##   ##       ##        **
 **     #######   #####   ##   #####  ##  ##  ####    ##    #####   ##        **
 **           ##                                                    ##        **
 **                                                                           **
 **                                                ... make the atoms dance   **
 **                                                                           **
 **            Copyright (C) by CP2K developers group (2000-2025)             **
 **                      J. Chem. Phys. 152, 194103 (2020)                    **
 **                                                                           **
 *******************************************************************************

 RADII: ORBITAL BASIS in angstrom            Kind   Label     Radius  OCE Radius
                                                1   Mo      7.835072    7.835072
                                                2   S       4.847597    4.847597

 RADII: SHELL SETS OF ORBITAL BASIS in angstrom   Kind  Label   Set       Radius
                                                     1  Mo        1     7.835072
                                                     2  S         1     4.847597

 RADII: PRIMITIVE GAUSSIANS OF ORBITAL BASIS in anKindomLabel   Set       Radius
                                                     1  Mo        1     1.210740
                                                                        1.244408
                                                                        1.881939
                                                                        2.818523
                                                                        4.630436
                                                                        7.835072
                                                     2  S         1     1.383511
                                                                        1.832392
                                                                        3.248149
                                                                        4.847597

 RADII: AUXILLIARY BASIS in angstrom         Kind   Label     Radius  OCE Radius
                                                          1   Mo        no basis
                                                          2   S         no basis

 RADII: SHELL SETS OF AUXILLIARY BASIS in angstromKind  Label   Set       Radius
                                                     1   Mo             no basis
                                                     2   S              no basis

 RADII: PRIMITIVE GAUSSIANS OF AUXILLIARY BASIS inKindstLabel   Set       Radius
                                                     1   Mo             no basis
                                                     2   S              no basis

 RADII: LOCAL RI BASIS in angstrom           Kind   Label     Radius  OCE Radius
                                                          1   Mo        no basis
                                                          2   S         no basis

 RADII: SHELL SETS OF LOCAL RI BASIS in angstrom  Kind  Label   Set       Radius
                                                     1   Mo             no basis
                                                     2   S              no basis

 RADII: PRIMITIVE GAUSSIANS OF LOCAL RI BASIS in aKindroLabel   Set       Radius
                                                     1   Mo             no basis
                                                     2   S              no basis

 RADII: CORE CHARGE DISTRIBUTIONS in angstrom          Kind   Label       Radius
                                                          1   Mo        1.632650
                                                          2   S         1.561359

 RADII: LOCAL PART OF GTH/ELP PP in angstrom           Kind   Label       Radius
                                                          1   Mo        0.974414
                                                          2   S         0.794927

 RADII: NON-LOCAL PART OF GTH PP in angstrom           Kind   Label       Radius
                                                          1   Mo        1.250283
                                                          2   S         1.077245

 RADII: ONE CENTER PROJECTORS in angstrom              Kind   Label       Radius

 DISTRIBUTION OF THE MOLECULES                    Process    Number of molecules
                                                        0                     48
                                                      Sum                     48

  Process   Kind   Local molecules (global indices)
        0      1         1
               2         2
               3         3
               4         4
               5         5
               6         6
               7         7
               8         8
               9         9
              10        10
              11        11
              12        12
              13        13
              14        14
              15        15
              16        16
              17        17
              18        18
              19        19
              20        20
              21        21
              22        22
              23        23
              24        24
              25        25
              26        26
              27        27
              28        28
              29        29
              30        30
              31        31
              32        32
              33        33
              34        34
              35        35
              36        36
              37        37
              38        38
              39        39
              40        40
              41        41
              42        42
              43        43
              44        44
              45        45
              46        46
              47        47
              48        48

 DISTRIBUTION OF THE PARTICLES                    Process    Number of particles
                                                        0                     48
                                                      Sum                     48

  Process   Kind   Local particles (global indices)
        0      1        1     2     3     4     5     6     7     8     9    10
                       11    12    13    14    15    16
               2       17    18    19    20    21    22    23    24    25    26
                       27    28    29    30    31    32    33    34    35    36
                       37    38    39    40    41    42    43    44    45    46
                       47    48

 DFT| Spin restricted Kohn-Sham (RKS) calculation                            RKS
 DFT| Multiplicity                                                             1
 DFT| Number of spin states                                                    1
 DFT| Charge                                                                   0
 DFT| Self-interaction correction (SIC)                                       NO
 DFT| Cutoffs: density                                              1.000000E-10
 DFT|          gradient                                             1.000000E-10
 DFT|          tau                                                  1.000000E-10
 DFT|          cutoff_smoothing_range                               0.000000E+00
 DFT| XC density smoothing                                                  NONE
 DFT| XC derivatives                                                          PW

 FUNCTIONAL| PBE:
 FUNCTIONAL| J.P.Perdew, K.Burke, M.Ernzerhof, Phys. Rev. Letter, vol. 77, n 18,
 FUNCTIONAL|  pp. 3865-3868, (1996) {spin unpolarized}                          

 vdW POTENTIAL|                                             Non-local Functional
 vdW POTENTIAL| Implementation: G. Roman-Perez, J. Soler, PRL 103: 096102 (2009)
 vdW POTENTIAL|                       T. Thonhauser et al, PRB 76: 125112 (2007)
 vdW POTENTIAL|       R. Sabatini et al, J.Phys:Condens Matter 24: 424209 (2012)
 vdW POTENTIAL| Based on QE implementation by Brian Kolb, Timo Thonhauser (2009)
 vdW POTENTIAL| RVV10 Functional:    R. Sabatini et al, PRB 87: 041108(R) (2013)

 QS| Method:                                                                 GPW
 QS| Density plane wave grid type                        NON-SPHERICAL FULLSPACE
 QS| Number of grid levels:                                                    4
 QS| Density cutoff [a.u.]:                                                200.0
 QS| Multi grid cutoff [a.u.]: 1) grid level                               200.0
 QS|                           2) grid level                                66.7
 QS|                           3) grid level                                22.2
 QS|                           4) grid level                                 7.4
 QS| Grid level progression factor:                                          3.0
 QS| Relative density cutoff [a.u.]:                                        20.0
 QS| Interaction thresholds: eps_pgf_orb:                                1.0E-04
 QS|                         eps_filter_matrix:                          0.0E+00
 QS|                         eps_core_charge:                            1.0E-10
 QS|                         eps_rho_gspace:                             1.0E-08
 QS|                         eps_rho_rspace:                             1.0E-08
 QS|                         eps_gvg_rspace:                             1.0E-04
 QS|                         eps_ppl:                                    1.0E-02
 QS|                         eps_ppnl:                                   1.0E-06


 ATOMIC KIND INFORMATION

  1. Atomic kind: Mo                                    Number of atoms:      16

     Orbital Basis Set                                  TZV2P-MOLOPT-GGA-GTH-q14

       Number of orbital shell sets:                                           1
       Number of orbital shells:                                              12
       Number of primitive Cartesian functions:                                6
       Number of Cartesian basis functions:                                   51
       Number of spherical basis functions:                                   42
       Norm type:                                                              2

       Normalised Cartesian orbitals:

                        Set   Shell   Orbital            Exponent    Coefficient

                          1       1    2s                2.544684      -0.188075
                                                         2.316245       0.296669
                                                         1.083413       0.433312
                                                         0.493050       0.017917
                                                         0.171157       0.067610
                                                         0.057249       0.008222

                          1       2    3s                2.544684      -0.583575
                                                         2.316245       0.348793
                                                         1.083413       0.149394
                                                         0.493050       0.143576
                                                         0.171157      -0.084316
                                                         0.057249      -0.067836

                          1       3    4s                2.544684       0.985904
                                                         2.316245       0.700484
                                                         1.083413      -0.090132
                                                         0.493050      -0.181791
                                                         0.171157       0.061855
                                                         0.057249      -0.047132

                          1       4    5s                2.544684      -0.066344
                                                         2.316245       1.552419
                                                         1.083413       0.023292
                                                         0.493050      -0.162246
                                                         0.171157      -0.180470
                                                         0.057249       0.063372

                          1       5    3px               2.544684       2.385025
                                                         2.316245      -1.995598
                                                         1.083413      -0.348630
                                                         0.493050      -0.168348
                                                         0.171157      -0.074762
                                                         0.057249      -0.009095
                          1       5    3py               2.544684       2.385025
                                                         2.316245      -1.995598
                                                         1.083413      -0.348630
                                                         0.493050      -0.168348
                                                         0.171157      -0.074762
                                                         0.057249      -0.009095
                          1       5    3pz               2.544684       2.385025
                                                         2.316245      -1.995598
                                                         1.083413      -0.348630
                                                         0.493050      -0.168348
                                                         0.171157      -0.074762
                                                         0.057249      -0.009095

                          1       6    4px               2.544684       1.680915
                                                         2.316245      -1.701974
                                                         1.083413      -0.295783
                                                         0.493050      -0.016655
                                                         0.171157       0.117406
                                                         0.057249       0.015577
                          1       6    4py               2.544684       1.680915
                                                         2.316245      -1.701974
                                                         1.083413      -0.295783
                                                         0.493050      -0.016655
                                                         0.171157       0.117406
                                                         0.057249       0.015577
                          1       6    4pz               2.544684       1.680915
                                                         2.316245      -1.701974
                                                         1.083413      -0.295783
                                                         0.493050      -0.016655
                                                         0.171157       0.117406
                                                         0.057249       0.015577

                          1       7    5px               2.544684      -0.173273
                                                         2.316245       0.509264
                                                         1.083413       0.129743
                                                         0.493050      -0.243268
                                                         0.171157      -0.086849
                                                         0.057249       0.049506
                          1       7    5py               2.544684      -0.173273
                                                         2.316245       0.509264
                                                         1.083413       0.129743
                                                         0.493050      -0.243268
                                                         0.171157      -0.086849
                                                         0.057249       0.049506
                          1       7    5pz               2.544684      -0.173273
                                                         2.316245       0.509264
                                                         1.083413       0.129743
                                                         0.493050      -0.243268
                                                         0.171157      -0.086849
                                                         0.057249       0.049506

                          1       8    4dx2              2.544684     -22.567275
                                                         2.316245       8.400806
                                                         1.083413       2.941227
                                                         0.493050      -0.248714
                                                         0.171157       0.016061
                                                         0.057249      -0.000063
                          1       8    4dxy              2.544684     -39.087666
                                                         2.316245      14.550622
                                                         1.083413       5.094354
                                                         0.493050      -0.430786
                                                         0.171157       0.027818
                                                         0.057249      -0.000108
                          1       8    4dxz              2.544684     -39.087666
                                                         2.316245      14.550622
                                                         1.083413       5.094354
                                                         0.493050      -0.430786
                                                         0.171157       0.027818
                                                         0.057249      -0.000108
                          1       8    4dy2              2.544684     -22.567275
                                                         2.316245       8.400806
                                                         1.083413       2.941227
                                                         0.493050      -0.248714
                                                         0.171157       0.016061
                                                         0.057249      -0.000063
                          1       8    4dyz              2.544684     -39.087666
                                                         2.316245      14.550622
                                                         1.083413       5.094354
                                                         0.493050      -0.430786
                                                         0.171157       0.027818
                                                         0.057249      -0.000108
                          1       8    4dz2              2.544684     -22.567275
                                                         2.316245       8.400806
                                                         1.083413       2.941227
                                                         0.493050      -0.248714
                                                         0.171157       0.016061
                                                         0.057249      -0.000063

                          1       9    5dx2              2.544684       0.273804
                                                         2.316245       3.109207
                                                         1.083413      -0.209533
                                                         0.493050       0.289178
                                                         0.171157       0.022622
                                                         0.057249       0.000731
                          1       9    5dxy              2.544684       0.474242
                                                         2.316245       5.385305
                                                         1.083413      -0.362922
                                                         0.493050       0.500872
                                                         0.171157       0.039182
                                                         0.057249       0.001265
                          1       9    5dxz              2.544684       0.474242
                                                         2.316245       5.385305
                                                         1.083413      -0.362922
                                                         0.493050       0.500872
                                                         0.171157       0.039182
                                                         0.057249       0.001265
                          1       9    5dy2              2.544684       0.273804
                                                         2.316245       3.109207
                                                         1.083413      -0.209533
                                                         0.493050       0.289178
                                                         0.171157       0.022622
                                                         0.057249       0.000731
                          1       9    5dyz              2.544684       0.474242
                                                         2.316245       5.385305
                                                         1.083413      -0.362922
                                                         0.493050       0.500872
                                                         0.171157       0.039182
                                                         0.057249       0.001265
                          1       9    5dz2              2.544684       0.273804
                                                         2.316245       3.109207
                                                         1.083413      -0.209533
                                                         0.493050       0.289178
                                                         0.171157       0.022622
                                                         0.057249       0.000731

                          1      10    6dx2              2.544684       0.069770
                                                         2.316245      -0.861163
                                                         1.083413      -0.093134
                                                         0.493050      -0.121334
                                                         0.171157       0.038877
                                                         0.057249       0.007315
                          1      10    6dxy              2.544684       0.120846
                                                         2.316245      -1.491577
                                                         1.083413      -0.161313
                                                         0.493050      -0.210157
                                                         0.171157       0.067337
                                                         0.057249       0.012670
                          1      10    6dxz              2.544684       0.120846
                                                         2.316245      -1.491577
                                                         1.083413      -0.161313
                                                         0.493050      -0.210157
                                                         0.171157       0.067337
                                                         0.057249       0.012670
                          1      10    6dy2              2.544684       0.069770
                                                         2.316245      -0.861163
                                                         1.083413      -0.093134
                                                         0.493050      -0.121334
                                                         0.171157       0.038877
                                                         0.057249       0.007315
                          1      10    6dyz              2.544684       0.120846
                                                         2.316245      -1.491577
                                                         1.083413      -0.161313
                                                         0.493050      -0.210157
                                                         0.171157       0.067337
                                                         0.057249       0.012670
                          1      10    6dz2              2.544684       0.069770
                                                         2.316245      -0.861163
                                                         1.083413      -0.093134
                                                         0.493050      -0.121334
                                                         0.171157       0.038877
                                                         0.057249       0.007315

                          1      11    5fx3              2.544684       0.050018
                                                         2.316245      -0.051094
                                                         1.083413      -0.302285
                                                         0.493050      -0.146467
                                                         0.171157      -0.013670
                                                         0.057249      -0.000239
                          1      11    5fx2y             2.544684       0.111843
                                                         2.316245      -0.114249
                                                         1.083413      -0.675930
                                                         0.493050      -0.327511
                                                         0.171157      -0.030567
                                                         0.057249      -0.000535
                          1      11    5fx2z             2.544684       0.111843
                                                         2.316245      -0.114249
                                                         1.083413      -0.675930
                                                         0.493050      -0.327511
                                                         0.171157      -0.030567
                                                         0.057249      -0.000535
                          1      11    5fxy2             2.544684       0.111843
                                                         2.316245      -0.114249
                                                         1.083413      -0.675930
                                                         0.493050      -0.327511
                                                         0.171157      -0.030567
                                                         0.057249      -0.000535
                          1      11    5fxyz             2.544684       0.193717
                                                         2.316245      -0.197885
                                                         1.083413      -1.170745
                                                         0.493050      -0.567265
                                                         0.171157      -0.052944
                                                         0.057249      -0.000927
                          1      11    5fxz2             2.544684       0.111843
                                                         2.316245      -0.114249
                                                         1.083413      -0.675930
                                                         0.493050      -0.327511
                                                         0.171157      -0.030567
                                                         0.057249      -0.000535
                          1      11    5fy3              2.544684       0.050018
                                                         2.316245      -0.051094
                                                         1.083413      -0.302285
                                                         0.493050      -0.146467
                                                         0.171157      -0.013670
                                                         0.057249      -0.000239
                          1      11    5fy2z             2.544684       0.111843
                                                         2.316245      -0.114249
                                                         1.083413      -0.675930
                                                         0.493050      -0.327511
                                                         0.171157      -0.030567
                                                         0.057249      -0.000535
                          1      11    5fyz2             2.544684       0.111843
                                                         2.316245      -0.114249
                                                         1.083413      -0.675930
                                                         0.493050      -0.327511
                                                         0.171157      -0.030567
                                                         0.057249      -0.000535
                          1      11    5fz3              2.544684       0.050018
                                                         2.316245      -0.051094
                                                         1.083413      -0.302285
                                                         0.493050      -0.146467
                                                         0.171157      -0.013670
                                                         0.057249      -0.000239

                          1      12    6fx3              2.544684       0.467569
                                                         2.316245      -0.278793
                                                         1.083413      -0.513094
                                                         0.493050      -0.027761
                                                         0.171157      -0.000061
                                                         0.057249       0.002246
                          1      12    6fx2y             2.544684       1.045515
                                                         2.316245      -0.623400
                                                         1.083413      -1.147313
                                                         0.493050      -0.062075
                                                         0.171157      -0.000137
                                                         0.057249       0.005023
                          1      12    6fx2z             2.544684       1.045515
                                                         2.316245      -0.623400
                                                         1.083413      -1.147313
                                                         0.493050      -0.062075
                                                         0.171157      -0.000137
                                                         0.057249       0.005023
                          1      12    6fxy2             2.544684       1.045515
                                                         2.316245      -0.623400
                                                         1.083413      -1.147313
                                                         0.493050      -0.062075
                                                         0.171157      -0.000137
                                                         0.057249       0.005023
                          1      12    6fxyz             2.544684       1.810885
                                                         2.316245      -1.079760
                                                         1.083413      -1.987204
                                                         0.493050      -0.107517
                                                         0.171157      -0.000237
                                                         0.057249       0.008699
                          1      12    6fxz2             2.544684       1.045515
                                                         2.316245      -0.623400
                                                         1.083413      -1.147313
                                                         0.493050      -0.062075
                                                         0.171157      -0.000137
                                                         0.057249       0.005023
                          1      12    6fy3              2.544684       0.467569
                                                         2.316245      -0.278793
                                                         1.083413      -0.513094
                                                         0.493050      -0.027761
                                                         0.171157      -0.000061
                                                         0.057249       0.002246
                          1      12    6fy2z             2.544684       1.045515
                                                         2.316245      -0.623400
                                                         1.083413      -1.147313
                                                         0.493050      -0.062075
                                                         0.171157      -0.000137
                                                         0.057249       0.005023
                          1      12    6fyz2             2.544684       1.045515
                                                         2.316245      -0.623400
                                                         1.083413      -1.147313
                                                         0.493050      -0.062075
                                                         0.171157      -0.000137
                                                         0.057249       0.005023
                          1      12    6fz3              2.544684       0.467569
                                                         2.316245      -0.278793
                                                         1.083413      -0.513094
                                                         0.493050      -0.027761
                                                         0.171157      -0.000061
                                                         0.057249       0.002246

       Atomic covalent radius [Angstrom]:                                  1.300

       Atomic van der Waals radius [Angstrom]:                             1.670

     GTH Potential information for                                   GTH-GGA-q14

       Description:                       Goedecker-Teter-Hutter pseudopotential
                                           Goedecker et al., PRB 54, 1703 (1996)
                                          Hartwigsen et al., PRB 58, 3641 (1998)
                                                      Krack, TCA 114, 145 (2005)

       Gaussian exponent of the core charge distribution:               2.670630
       Electronic configuration (s p d ...):                       3   6   5   0

       Parameters of the local part of the GTH pseudopotential:

                          rloc        C1          C2          C3          C4
                        0.432691   28.601423   -4.728276

       Parameters of the non-local part of the GTH pseudopotential:

                   l      r(l)      h(i,j,l)

                   0    0.319537    0.154233    2.762005
                                    2.762005   -3.519037
                   1    0.417172   -0.191001   -0.728744
                                   -0.728744    0.861953
                   2    0.420554    1.216840   -2.686463
                                   -2.686463    3.046115

  2. Atomic kind: S                                     Number of atoms:      32

     Orbital Basis Set                                   TZV2P-MOLOPT-GGA-GTH-q6

       Number of orbital shell sets:                                           1
       Number of orbital shells:                                               9
       Number of primitive Cartesian functions:                                4
       Number of Cartesian basis functions:                                   34
       Number of spherical basis functions:                                   29
       Norm type:                                                              2

       Normalised Cartesian orbitals:

                        Set   Shell   Orbital            Exponent    Coefficient

                          1       1    2s                1.909285       0.317142
                                                         1.195069      -0.043753
                                                         0.372557      -0.224533
                                                         0.119646      -0.070852

                          1       2    3s                1.909285      -0.359750
                                                         1.195069      -0.143623
                                                         0.372557       0.347052
                                                         0.119646      -0.222614

                          1       3    4s                1.909285       0.697346
                                                         1.195069      -1.478645
                                                         0.372557       0.075945
                                                         0.119646       0.034089

                          1       4    3px               1.909285       0.542980
                                                         1.195069      -0.491283
                                                         0.372557      -0.270944
                                                         0.119646      -0.032363
                          1       4    3py               1.909285       0.542980
                                                         1.195069      -0.491283
                                                         0.372557      -0.270944
                                                         0.119646      -0.032363
                          1       4    3pz               1.909285       0.542980
                                                         1.195069      -0.491283
                                                         0.372557      -0.270944
                                                         0.119646      -0.032363

                          1       5    4px               1.909285       0.682434
                                                         1.195069      -0.508016
                                                         0.372557      -0.183204
                                                         0.119646       0.125359
                          1       5    4py               1.909285       0.682434
                                                         1.195069      -0.508016
                                                         0.372557      -0.183204
                                                         0.119646       0.125359
                          1       5    4pz               1.909285       0.682434
                                                         1.195069      -0.508016
                                                         0.372557      -0.183204
                                                         0.119646       0.125359

                          1       6    5px               1.909285      -4.787543
                                                         1.195069       1.991006
                                                         0.372557      -0.393268
                                                         0.119646       0.017618
                          1       6    5py               1.909285      -4.787543
                                                         1.195069       1.991006
                                                         0.372557      -0.393268
                                                         0.119646       0.017618
                          1       6    5pz               1.909285      -4.787543
                                                         1.195069       1.991006
                                                         0.372557      -0.393268
                                                         0.119646       0.017618

                          1       7    4dx2              1.909285       0.298660
                                                         1.195069       0.639898
                                                         0.372557       0.199968
                                                         0.119646       0.006416
                          1       7    4dxy              1.909285       0.517294
                                                         1.195069       1.108336
                                                         0.372557       0.346354
                                                         0.119646       0.011113
                          1       7    4dxz              1.909285       0.517294
                                                         1.195069       1.108336
                                                         0.372557       0.346354
                                                         0.119646       0.011113
                          1       7    4dy2              1.909285       0.298660
                                                         1.195069       0.639898
                                                         0.372557       0.199968
                                                         0.119646       0.006416
                          1       7    4dyz              1.909285       0.517294
                                                         1.195069       1.108336
                                                         0.372557       0.346354
                                                         0.119646       0.011113
                          1       7    4dz2              1.909285       0.298660
                                                         1.195069       0.639898
                                                         0.372557       0.199968
                                                         0.119646       0.006416

                          1       8    5dx2              1.909285      -1.624320
                                                         1.195069       3.449010
                                                         0.372557      -0.180239
                                                         0.119646       0.000879
                          1       8    5dxy              1.909285      -2.813405
                                                         1.195069       5.973861
                                                         0.372557      -0.312183
                                                         0.119646       0.001522
                          1       8    5dxz              1.909285      -2.813405
                                                         1.195069       5.973861
                                                         0.372557      -0.312183
                                                         0.119646       0.001522
                          1       8    5dy2              1.909285      -1.624320
                                                         1.195069       3.449010
                                                         0.372557      -0.180239
                                                         0.119646       0.000879
                          1       8    5dyz              1.909285      -2.813405
                                                         1.195069       5.973861
                                                         0.372557      -0.312183
                                                         0.119646       0.001522
                          1       8    5dz2              1.909285      -1.624320
                                                         1.195069       3.449010
                                                         0.372557      -0.180239
                                                         0.119646       0.000879

                          1       9    5fx3              1.909285      -0.584906
                                                         1.195069       0.904283
                                                         0.372557       0.121142
                                                         0.119646       0.000670
                          1       9    5fx2y             1.909285      -1.307890
                                                         1.195069       2.022038
                                                         0.372557       0.270881
                                                         0.119646       0.001498
                          1       9    5fx2z             1.909285      -1.307890
                                                         1.195069       2.022038
                                                         0.372557       0.270881
                                                         0.119646       0.001498
                          1       9    5fxy2             1.909285      -1.307890
                                                         1.195069       2.022038
                                                         0.372557       0.270881
                                                         0.119646       0.001498
                          1       9    5fxyz             1.909285      -2.265332
                                                         1.195069       3.502273
                                                         0.372557       0.469179
                                                         0.119646       0.002595
                          1       9    5fxz2             1.909285      -1.307890
                                                         1.195069       2.022038
                                                         0.372557       0.270881
                                                         0.119646       0.001498
                          1       9    5fy3              1.909285      -0.584906
                                                         1.195069       0.904283
                                                         0.372557       0.121142
                                                         0.119646       0.000670
                          1       9    5fy2z             1.909285      -1.307890
                                                         1.195069       2.022038
                                                         0.372557       0.270881
                                                         0.119646       0.001498
                          1       9    5fyz2             1.909285      -1.307890
                                                         1.195069       2.022038
                                                         0.372557       0.270881
                                                         0.119646       0.001498
                          1       9    5fz3              1.909285      -0.584906
                                                         1.195069       0.904283
                                                         0.372557       0.121142
                                                         0.119646       0.000670

       Atomic covalent radius [Angstrom]:                                  1.020

       Atomic van der Waals radius [Angstrom]:                             1.800

     GTH Potential information for                                    GTH-GGA-q6

       Description:                       Goedecker-Teter-Hutter pseudopotential
                                           Goedecker et al., PRB 54, 1703 (1996)
                                          Hartwigsen et al., PRB 58, 3641 (1998)
                                                      Krack, TCA 114, 145 (2005)

       Gaussian exponent of the core charge distribution:               2.832916
       Electronic configuration (s p d ...):                       2   4   0   0

       Parameters of the local part of the GTH pseudopotential:

                          rloc        C1          C2          C3          C4
                        0.420115   -5.974780

       Parameters of the non-local part of the GTH pseudopotential:

                   l      r(l)      h(i,j,l)

                   0    0.364825   13.144660   -4.241830
                                   -4.241830    5.476178
                   1    0.409479    3.700870


 MOLECULE KIND INFORMATION


 All atoms are their own molecule, skipping detailed information


 TOTAL NUMBERS AND MAXIMUM NUMBERS

  Total number of            - Atomic kinds:                                   2
                             - Atoms:                                         48
                             - Shell sets:                                    48
                             - Shells:                                       480
                             - Primitive Cartesian functions:                224
                             - Cartesian basis functions:                   1904
                             - Spherical basis functions:                   1600

  Maximum angular momentum of- Orbital basis functions:                        3
                             - Local part of the GTH pseudopotential:          2
                             - Non-local part of the GTH pseudopotential:      4


 MODULE QUICKSTEP: ATOMIC COORDINATES IN ANGSTROM

   Atom Kind Element         X             Y             Z       Z(eff)     Mass
      1    1 Mo   42      6.506805      8.981390      1.671521  14.0000  95.9600
      2    1 Mo   42      1.776133      0.777432      1.725390  14.0000  95.9600
      3    1 Mo   42     11.248395      0.892413      1.689138  14.0000  95.9600
      4    1 Mo   42      8.221982      6.251015      1.683839  14.0000  95.9600
      5    1 Mo   42      3.407175      3.513279      1.657403  14.0000  95.9600
      6    1 Mo   42      8.119174      0.796102      1.670117  14.0000  95.9600
      7    1 Mo   42      4.951390      0.802067      1.676094  14.0000  95.9600
      8    1 Mo   42      4.934477      6.266260      1.616528  14.0000  95.9600
      9    1 Mo   42      9.602355      3.478473      1.763674  14.0000  95.9600
     10    1 Mo   42      3.381376      9.128666      1.656825  14.0000  95.9600
     11    1 Mo   42     -2.908941      8.980148      1.675741  14.0000  95.9600
     12    1 Mo   42      0.322658      3.533282      1.661026  14.0000  95.9600
     13    1 Mo   42      6.548782      3.639921      1.711373  14.0000  95.9600
     14    1 Mo   42      0.241635      9.075552      1.668742  14.0000  95.9600
     15    1 Mo   42     -1.419900      6.239141      1.676750  14.0000  95.9600
     16    1 Mo   42      1.788999      6.336728      1.553700  14.0000  95.9600
     17    2 S    16      0.239999      1.729670      0.099362   6.0000  32.0650
     18    2 S    16      4.929082      9.871252      0.008390   6.0000  32.0650
     19    2 S    16     -4.484780      9.869253      0.119550   6.0000  32.0650
     20    2 S    16      0.226582      1.719794      3.278480   6.0000  32.0650
     21    2 S    16      4.960009      9.917278      3.151535   6.0000  32.0650
     22    2 S    16     -4.529280      9.884337      3.194845   6.0000  32.0650
     23    2 S    16     -1.432399      4.336107      0.123949   6.0000  32.0650
     24    2 S    16      3.459168      7.207912      0.000000   6.0000  32.0650
     25    2 S    16     -1.323382      9.936491      0.090979   6.0000  32.0650
     26    2 S    16     -1.314552      4.397902      3.187365   6.0000  32.0650
     27    2 S    16      3.277849      7.273273      3.188974   6.0000  32.0650
     28    2 S    16     -1.391899      9.934442      3.212053   6.0000  32.0650
     29    2 S    16      1.799890     10.002584      0.030537   6.0000  32.0650
     30    2 S    16      1.830498      4.443367      0.107820   6.0000  32.0650
     31    2 S    16     -2.898959      7.215185      0.127502   6.0000  32.0650
     32    2 S    16      1.719354      9.904838      3.213361   6.0000  32.0650
     33    2 S    16      1.934612      4.505231      3.105496   6.0000  32.0650
     34    2 S    16     -2.906698      7.184090      3.250749   6.0000  32.0650
     35    2 S    16      3.349123      1.655056      0.151052   6.0000  32.0650
     36    2 S    16      9.685141      1.734330      0.160558   6.0000  32.0650
     37    2 S    16      6.607106      7.099241      0.163548   6.0000  32.0650
     38    2 S    16      3.296734      1.711465      3.221692   6.0000  32.0650
     39    2 S    16      9.675149      1.668143      3.306316   6.0000  32.0650
     40    2 S    16      6.452268      7.155104      3.181862   6.0000  32.0650
     41    2 S    16      0.195699      7.290081      0.041436   6.0000  32.0650
     42    2 S    16      0.173712      7.142589      3.070403   6.0000  32.0650
     43    2 S    16      6.505081      1.864798      0.221226   6.0000  32.0650
     44    2 S    16      8.171859      4.464034      0.098488   6.0000  32.0650
     45    2 S    16      4.949529      4.427783      0.133042   6.0000  32.0650
     46    2 S    16      6.568796      1.751128      3.179628   6.0000  32.0650
     47    2 S    16      8.109672      4.522488      3.326793   6.0000  32.0650
     48    2 S    16      4.910573      4.454004      3.207758   6.0000  32.0650



 INTERATOMIC DISTANCES IN angstrom

                    1            2            3            4            5
     1  Mo       0.000000     3.144331     3.238621     3.224428     6.285551
     2  Mo       3.144331     0.000000     3.144088     5.452421     3.185871
     3  Mo       3.238621     3.144088     0.000000     6.154171     5.445157
     4  Mo       3.224428     5.452421     6.154171     0.000000     5.538796
     5  Mo       6.285551     3.185871     5.445157     5.538796     0.000000
     6  Mo       5.435135     6.271268     3.130760     5.455899     5.439315
     7  Mo       5.487388     3.175734     6.297667     6.260750     3.120195
     8  Mo       3.138021     6.282352     5.550709     3.288230     3.148528
     9  Mo       6.301666     5.497297     3.066384     3.098191     6.196189
    10  Mo       3.128932     5.360124     3.107900     5.631437     5.615446
    11  Mo       3.198294     3.168434     5.544190     3.106101     5.457246
    12  Mo       5.477357     3.116319     3.134540     5.441977     3.084584
    13  Mo       5.341782     5.565269     5.443864     3.101317     3.144622
    14  Mo       6.265878     5.447551     5.440654     5.426723     6.214335
    15  Mo       5.430566     6.286339     5.347018     2.972187     5.543587
    16  Mo       5.409789     5.561961     6.293701     6.183018     3.255936
    17  S        3.994934     2.431139     2.409662     6.664012     3.954714
    18  S        2.459079     4.030644     2.570800     5.172663     6.742349
    19  S        2.414387     2.436803     4.051904     3.943000     5.073911
    20  S        3.999600     2.387728     2.397029     6.663832     3.995078
    21  S        2.336430     3.869288     2.397072     5.122118     6.727987
    22  S        2.371869     2.336967     3.985124     3.937384     5.074325
    23  S        6.669502     5.052075     3.783293     3.854827     5.142957
    24  S        3.902217     6.674625     5.127291     5.141533     4.049692
    25  S        5.127919     4.009323     6.733179     5.053385     5.019631
    26  S        6.692837     4.979710     3.812578     3.894309     5.041632
    27  S        3.955563     6.696438     5.065337     5.268291     4.062018
    28  S        5.051329     3.896913     6.731222     4.990392     4.996706
    29  S        5.088292     6.725939     3.988752     7.361488     6.663437
    30  S        6.701243     4.007315     5.032411     6.668703     2.398371
    31  S        3.974481     5.034237     6.690830     2.362445     7.382435
    32  S        5.113679     6.671400     4.044637     7.282801     6.655953
    33  S        6.557227     3.978227     5.094135     6.678315     2.291154
    34  S        3.995956     5.037040     6.663234     2.352046     7.426214
    35  S        5.017360     2.392292     5.017604     6.667183     2.392792
    36  S        5.058865     5.049917     2.342892     4.986146     6.694629
    37  S        2.413821     5.079265     5.230155     2.374574     5.032920
    38  S        5.034574     2.328854     4.975673     6.710921     2.388667
    39  S        5.055879     5.052140     2.385817     5.074135     6.738764
    40  S        2.370533     5.044887     5.122453     2.488642     4.985926
    41  S        6.726414     6.681093     6.762008     4.982433     5.214323
    42  S        6.692408     6.687753     6.583480     4.854245     5.061990
    43  S        7.262868     5.080140     5.059577     4.932128     3.791717
    44  S        5.064913     7.409807     4.975110     2.389382     5.102584
    45  S        5.052462     5.092256     7.388910     4.054393     2.353476
    46  S        7.386130     5.102207     4.985739     5.021891     3.926601
    47  S        5.019055     7.355511     5.070596     2.387408     5.091055
    48  S        5.040357     5.053643     7.374417     4.064112     2.355583

                    6            7            8            9           10
     1  Mo       5.435135     5.487388     3.138021     6.301666     3.128932
     2  Mo       6.271268     3.175734     6.282352     5.497297     5.360124
     3  Mo       3.130760     6.297667     5.550709     3.066384     3.107900
     4  Mo       5.455899     6.260750     3.288230     3.098191     5.631437
     5  Mo       5.439315     3.120195     3.148528     6.196189     5.615446
     6  Mo       0.000000     3.167796     6.284663     3.066544     3.029615
     7  Mo       3.167796     0.000000     5.464543     5.366777     5.402451
     8  Mo       6.284663     5.464543     0.000000     5.438979     3.256857
     9  Mo       3.066544     5.366777     5.438979     0.000000     5.275668
    10  Mo       3.029615     5.402451     3.256857     5.275668     0.000000
    11  Mo       5.458622     3.154881     5.488853     5.503337     6.292098
    12  Mo       5.540826     5.374469     5.360972     3.336371     6.240709
    13  Mo       3.248868     3.256735     3.084255     3.058285     6.277179
    14  Mo       3.075807     3.094664     5.469699     6.140929     3.140212
    15  Mo       6.251569     5.487380     6.260009     3.187885     5.603749
    16  Mo       5.384759     6.240951     3.146895     5.591087     3.215776
    17  S        5.075208     5.054081     6.702281     4.049899     4.987301
    18  S        3.986865     6.761616     3.947418     5.126676     2.379951
    19  S        6.744003     3.957582     5.042730     6.761304     5.045202
    20  S        5.072681     5.072836     6.752533     3.984212     4.992290
    21  S        3.918422     6.717049     3.960661     4.981461     2.312607
    22  S        6.711233     3.971262     5.050330     6.736946     5.005831
    23  S        4.929600     7.329023     6.706736     2.432770     6.494228
    24  S        5.085518     6.787552     2.382521     7.399865     2.537798
    25  S        3.937869     2.390918     7.412692     6.638987     5.023863
    26  S        5.038788     7.380785     6.708849     2.398436     6.579916
    27  S        4.922413     6.601968     2.496212     7.270376     2.408460
    28  S        3.978993     2.360229     7.429272     6.635658     5.084501
    29  S        2.374553     3.954215     5.128462     4.959821     2.430976
    30  S        7.435776     5.045643     3.903053     5.207648     5.172684
    31  S        6.698450     5.012860     5.096255     4.080782     6.741130
    32  S        2.384465     3.890484     5.111374     4.981438     2.405735
    33  S        7.353010     4.985735     3.783838     5.226906     5.056473
    34  S        6.733652     5.051298     5.127700     3.994247     6.772137
    35  S        5.079247     2.370782     5.091578     6.710314     7.317497
    36  S        2.368816     5.057110     6.725105     2.370415     3.833784
    37  S        6.654748     6.684579     2.367002     4.964059     4.093138
    38  S        5.147932     2.440033     5.099501     6.708874     7.311974
    39  S        2.420467     5.071648     6.732502     2.379567     3.836300
    40  S        6.682508     6.699332     2.354571     5.044990     3.956142
    41  S        4.989118     4.975679     5.097562     5.270840     4.017264
    42  S        5.059607     5.029111     5.054363     5.027924     4.028872
    43  S        2.417993     2.379074     4.877144     3.817879     5.058809
    44  S        3.990805     5.125453     4.004136     2.406344     6.626382
    45  S        5.059482     3.940410     2.362405     5.020851     5.184527
    46  S        2.365242     2.403609     5.049821     3.767111     4.962737
    47  S        4.078066     5.151804     4.005947     2.400293     6.722872
    48  S        5.102912     3.960341     2.411815     5.004983     5.157160

                   11           12           13           14           15
     1  Mo       3.198294     5.477357     5.341782     6.265878     5.430566
     2  Mo       3.168434     3.116319     5.565269     5.447551     6.286339
     3  Mo       5.544190     3.134540     5.443864     5.440654     5.347018
     4  Mo       3.106101     5.441977     3.101317     5.426723     2.972187
     5  Mo       5.457246     3.084584     3.144622     6.214335     5.543587
     6  Mo       5.458622     5.540826     3.248868     3.075807     6.251569
     7  Mo       3.154881     5.374469     3.256735     3.094664     5.487380
     8  Mo       5.488853     5.360972     3.084255     5.469699     6.260009
     9  Mo       5.503337     3.336371     3.058285     6.140929     3.187885
    10  Mo       6.292098     6.240709     6.277179     3.140212     5.603749
    11  Mo       0.000000     6.281581     6.203355     3.152028     3.119354
    12  Mo       6.281581     0.000000     6.227241     5.542867     3.218451
    13  Mo       6.203355     6.227241     0.000000     5.488612     5.323201
    14  Mo       3.152028     5.542867     5.488612     0.000000     3.287247
    15  Mo       3.119354     3.218451     5.323201     3.287247     0.000000
    16  Mo       5.391957     3.165594     5.472949     3.147812     3.212740
    17  S        5.094483     2.387184     6.782615     7.417835     5.057544
    18  S        5.136578     5.162906     6.659810     5.036076     7.431459
    19  S        2.386525     5.067110     6.620904     5.036760     4.999607
    20  S        5.103922     2.431898     6.762391     7.410330     5.069609
    21  S        5.056880     5.061792     6.633512     5.016994     7.387018
    22  S        2.398068     5.038094     6.599441     5.073929     5.025963
    23  S        5.114231     2.467257     4.946508     5.258433     2.456193
    24  S        6.705263     5.108778     5.020465     4.077413     5.249316
    25  S        2.437224     6.680421     5.146764     2.383239     4.024224
    26  S        5.081739     2.399528     5.032124     5.158327     2.383950
    27  S        6.593912     5.005528     5.107206     3.844205     5.042331
    28  S        2.360582     6.629719     5.133584     2.405812     4.001648
    29  S        5.091676     6.769812     5.104847     2.443617     5.219250
    30  S        6.745595     2.348252     5.047684     5.139854     4.031307
    31  S        2.347816     5.127077     5.031559     3.962287     2.353815
    32  S        4.963914     6.705016     5.113415     2.292862     5.064922
    33  S        6.747525     2.372673     4.897234     5.081167     4.037389
    34  S        2.388824     5.126828     4.990721     3.999047     2.362408
    35  S        3.908934     3.868752     4.075796     4.981512     6.699902
    36  S        7.402571     4.007523     3.984099     4.994899     4.986905
    37  S        3.927096     7.379213     3.790258     6.724284     4.906160
    38  S        3.970155     3.820972     4.071342     5.065586     6.718135
    39  S        7.423440     4.101635     4.025658     4.982326     5.084962
    40  S        4.022447     7.280292     3.811583     6.674549     5.058624
    41  S        3.894364     4.093009     7.437197     2.416225     2.527625
    42  S        3.850254     3.877580     7.282881     2.388642     2.301757
    43  S        5.125961     6.563476     2.318084     3.985720     6.575764
    44  S        5.023328     5.100146     2.432065     6.704394     3.843966
    45  S        6.736885     4.954069     2.381064     6.656397     6.682753
    46  S        5.095938     6.670567     2.392429     3.903932     6.617755
    47  S        5.014189     5.201294     2.413480     6.765776     3.896596
    48  S        6.750427     4.928394     2.363393     6.691319     6.709238

                   16           17           18           19           20
     1  Mo       5.409789     3.994934     2.459079     2.414387     3.999600
     2  Mo       5.561961     2.431139     4.030644     2.436803     2.387728
     3  Mo       6.293701     2.409662     2.570800     4.051904     2.397029
     4  Mo       6.183018     6.664012     5.172663     3.943000     6.663832
     5  Mo       3.255936     3.954714     6.742349     5.073911     3.995078
     6  Mo       5.384759     5.075208     3.986865     6.744003     5.072681
     7  Mo       6.240951     5.054081     6.761616     3.957582     5.072836
     8  Mo       3.146895     6.702281     3.947418     5.042730     6.752533
     9  Mo       5.591087     4.049899     5.126676     6.761304     3.984212
    10  Mo       3.215776     4.987301     2.379951     5.045202     4.992290
    11  Mo       5.391957     5.094483     5.136578     2.386525     5.103922
    12  Mo       3.165594     2.387184     5.162906     5.067110     2.431898
    13  Mo       5.472949     6.782615     6.659810     6.620904     6.762391
    14  Mo       3.147812     7.417835     5.036076     5.036760     7.410330
    15  Mo       3.212740     5.057544     7.431459     4.999607     5.069609
    16  Mo       0.000000     5.073410     4.974029     7.341377     5.170308
    17  S        5.073410     0.000000     3.219979     3.202701     3.179162
    18  S        4.974029     3.219979     0.000000     3.202106     4.577705
    19  S        7.341377     3.202701     3.202106     0.000000     4.497050
[...]
  Exchange-correlation energy:                                   -198.7976008343
  Coulomb (electron-electron) energy:                           14805.6172937888
  Dispersion energy:                                                0.7923924535
        Maximum deviation from MO S-orthonormality                    0.1302E-10

 ELPA| Matrix diagonalization information
 ELPA| Matrix order (NA)                                                     208
 ELPA| Matrix block size (NBLK)                                               64
 ELPA| Number of eigenvectors (NEV)                                          208
 ELPA| Local rows (LOCAL_NROWS)                                              208
 ELPA| Local columns (LOCAL_NCOLS)                                           208
 ELPA| Kernel                                                      AVX512_BLOCK4
 ELPA| QR step requested                                                      NO

 *** WARNING in fm/cp_fm_elpa.F:521 :: Setting real_kernel for ELPA failed ***

        Minimum/Maximum MO magnitude              0.3565E+00          0.3660E+01
    22 OT LS       0.39E-01   23.1                    -1412.7288262767

  Trace(PS):                                  416.0000000008
  Electronic density on regular grids:       -415.9999994705        0.0000005295
  Core density on regular grids:              415.9999970703       -0.0000029297
  Total charge density on r-space grids:       -0.0000024002
  Total charge density g-space grids:          -0.0000024002


  Core Hamiltonian energy:                                        636.8057184773
  Hartree energy:                                                 966.5323631093
  Exchange-correlation energy:                                   -198.7976072479
  Coulomb (electron-electron) energy:                           14805.6176255142
  Dispersion energy:                                                0.7923925056
        Maximum deviation from MO S-orthonormality                    0.1302E-10

 ELPA| Matrix diagonalization information
 ELPA| Matrix order (NA)                                                     208
 ELPA| Matrix block size (NBLK)                                               64
 ELPA| Number of eigenvectors (NEV)                                          208
 ELPA| Local rows (LOCAL_NROWS)                                              208
 ELPA| Local columns (LOCAL_NCOLS)                                           208
 ELPA| Kernel                                                      AVX512_BLOCK4
 ELPA| QR step requested                                                      NO

 *** WARNING in fm/cp_fm_elpa.F:521 :: Setting real_kernel for ELPA failed ***

        Minimum/Maximum MO magnitude              0.3565E+00          0.3660E+01
    23 OT CG       0.39E-01   33.4     0.00001026     -1412.7288263002 -1.09E-06

  Trace(PS):                                  416.0000000008
  Electronic density on regular grids:       -415.9999994705        0.0000005295
  Core density on regular grids:              415.9999970703       -0.0000029297
  Total charge density on r-space grids:       -0.0000024002
  Total charge density g-space grids:          -0.0000024002


  Core Hamiltonian energy:                                        636.8055691888
  Hartree energy:                                                 966.5324988710
  Exchange-correlation energy:                                   -198.7975944953
  Coulomb (electron-electron) energy:                           14805.6176535332
  Dispersion energy:                                                0.7923927058
        Maximum deviation from MO S-orthonormality                    0.1302E-10

 ELPA| Matrix diagonalization information
 ELPA| Matrix order (NA)                                                     208
 ELPA| Matrix block size (NBLK)                                               64
 ELPA| Number of eigenvectors (NEV)                                          208
 ELPA| Local rows (LOCAL_NROWS)                                              208
 ELPA| Local columns (LOCAL_NCOLS)                                           208
 ELPA| Kernel                                                      AVX512_BLOCK4
 ELPA| QR step requested                                                      NO

 *** WARNING in fm/cp_fm_elpa.F:521 :: Setting real_kernel for ELPA failed ***

        Minimum/Maximum MO magnitude              0.3565E+00          0.3660E+01
    24 OT LS       0.34E-01   21.9                    -1412.7288268741

  Trace(PS):                                  416.0000000008
  Electronic density on regular grids:       -415.9999994705        0.0000005295
  Core density on regular grids:              415.9999970703       -0.0000029297
  Total charge density on r-space grids:       -0.0000024002
  Total charge density g-space grids:          -0.0000024002


  Core Hamiltonian energy:                                        636.8055892240
  Hartree energy:                                                 966.5324805664
  Exchange-correlation energy:                                   -198.7975962132
  Coulomb (electron-electron) energy:                           14805.6176497370
  Dispersion energy:                                                0.7923926789
        Maximum deviation from MO S-orthonormality                    0.1302E-10

 ELPA| Matrix diagonalization information
 ELPA| Matrix order (NA)                                                     208
 ELPA| Matrix block size (NBLK)                                               64
 ELPA| Number of eigenvectors (NEV)                                          208
 ELPA| Local rows (LOCAL_NROWS)                                              208
 ELPA| Local columns (LOCAL_NCOLS)                                           208
 ELPA| Kernel                                                      AVX512_BLOCK4
 ELPA| QR step requested                                                      NO

 *** WARNING in fm/cp_fm_elpa.F:521 :: Setting real_kernel for ELPA failed ***

        Minimum/Maximum MO magnitude              0.3565E+00          0.3660E+01
    25 OT CG       0.34E-01   36.7     0.00000638     -1412.7288268884 -5.88E-07

  *** SCF run converged in    25 steps ***


  Electronic density on regular grids:       -415.9999994705        0.0000005295
  Core density on regular grids:              415.9999970703       -0.0000029297
  Total charge density on r-space grids:       -0.0000024002
  Total charge density g-space grids:          -0.0000024002

  Overlap energy of the core charge distribution:               0.00000000019009
  Self energy of the core charge distribution:              -2818.06169314464660
  Core Hamiltonian energy:                                    636.80558922404225
  Hartree energy:                                             966.53248056635914
  Exchange-correlation energy:                               -198.79759621319045
  Coulomb Electron-Electron Interaction Energy 
  - Already included in the total Hartree term              14805.61764973702520
  Dispersion energy:                                            0.79239267885101

  Total energy:                                             -1412.72882688839468

  outer SCF iter =    2 RMS gradient =   0.64E-05 energy =      -1412.7288268884
  outer SCF loop converged in   2 iterations or  125 steps


   Calculate DOS at iteration step                                   0

 ELPA| Matrix diagonalization information
 ELPA| Matrix order (NA)                                                     208
 ELPA| Matrix block size (NBLK)                                               64
 ELPA| Number of eigenvectors (NEV)                                          208
 ELPA| Local rows (LOCAL_NROWS)                                              208
 ELPA| Local columns (LOCAL_NCOLS)                                           208
 ELPA| Kernel                                                      AVX512_BLOCK4
 ELPA| QR step requested                                                      NO

 *** WARNING in fm/cp_fm_elpa.F:521 :: Setting real_kernel for ELPA failed ***


   Calculate PDOS at iteration step                                  0

 ELPA| Matrix diagonalization information
 ELPA| Matrix order (NA)                                                    1600
 ELPA| Matrix block size (NBLK)                                               64
 ELPA| Number of eigenvectors (NEV)                                         1600
 ELPA| Local rows (LOCAL_NROWS)                                             1600
 ELPA| Local columns (LOCAL_NCOLS)                                          1600
 ELPA| Kernel                                                      AVX512_BLOCK4
 ELPA| QR step requested                                                      NO

 *** WARNING in fm/cp_fm_elpa.F:521 :: Setting real_kernel for ELPA failed ***


              ---- PDOS: start iteration on the KS states --- 

 The electron density is written in cube file format to the file:

 eq_MD-ELECTRON_DENSITY-1_0.cube

     Lanczos converged:  F threshold:   0.100E-02
     Est. extremal eigenvalues:    0.120E+02   0.915E-03
     Est. condition number :    0.132E+05

 Order=           3
     NS sqrt iter    1 1.00000000   0.293E+01       0.139   119993.299
     NS sqrt iter    2 1.00000000   0.155E+01       0.168   195591.941
     NS sqrt iter    3 1.00000000   0.747E+00       0.167   196404.385
     NS sqrt iter    4 1.00000000   0.479E+00       0.161   203709.376
     NS sqrt iter    5 1.00000000   0.341E+00       0.182   180444.709
     NS sqrt iter    6 1.00000000   0.230E+00       0.178   184274.307
     NS sqrt iter    7 1.00000000   0.140E+00       0.192   171049.124
     NS sqrt iter    8 1.00000000   0.669E-01       0.180   181755.001
     NS sqrt iter    9 1.00000000   0.188E-01       0.192   170568.519
     NS sqrt iter   10 1.00000000   0.708E-03       0.168   194526.638
     NS sqrt iter   11 1.00000000   0.564E-07       0.165   165235.151
     Symmetrizing Results
     Final NS sqrt iter   11 1.00000000   0.779E-13


 ELPA| Matrix diagonalization information
 ELPA| Matrix order (NA)                                                    1600
 ELPA| Matrix block size (NBLK)                                               64
 ELPA| Number of eigenvectors (NEV)                                         1600
 ELPA| Local rows (LOCAL_NROWS)                                             1600
 ELPA| Local columns (LOCAL_NCOLS)                                          1600
 ELPA| Kernel                                                      AVX512_BLOCK4
 ELPA| QR step requested                                                      NO

 *** WARNING in fm/cp_fm_elpa.F:521 :: Setting real_kernel for ELPA failed ***

  Creating energy windows. Fermi level:  -0.15497755084511264     
  Printing Energy Levels from   -2.3862669006362069       to    14.400239071028414     
 Energy Level:    -2.3023343708 Number of states:    16 Occupation:    31.99999998663297
 Energy Level:    -2.1344693111 Number of states:     0 Occupation:     0.00000000000000
 Energy Level:    -1.9666042513 Number of states:     0 Occupation:     0.00000000000000
 Energy Level:    -1.7987391916 Number of states:     0 Occupation:     0.00000000000000
 Energy Level:    -1.6308741319 Number of states:     0 Occupation:     0.00000000000000
 Energy Level:    -1.4630090722 Number of states:    48 Occupation:    95.99999998251174
 Energy Level:    -1.2951440125 Number of states:     0 Occupation:     0.00000000000000
 Energy Level:    -1.1272789528 Number of states:     0 Occupation:     0.00000000000000
 Energy Level:    -0.9594138930 Number of states:     0 Occupation:     0.00000000000000
 Energy Level:    -0.7915488333 Number of states:     0 Occupation:     0.00000000000000
 Energy Level:    -0.6236837736 Number of states:    32 Occupation:    63.99999995529466
 Energy Level:    -0.4558187139 Number of states:     3 Occupation:     5.99999998999597
 Energy Level:    -0.2879536542 Number of states:    86 Occupation:   171.99999976860087
 Energy Level:    -0.1200885945 Number of states:    65 Occupation:    46.00000017339929
 Energy Level:     0.0477764653 Number of states:    26 Occupation:     0.00000010336851
 Energy Level:     0.2156415250 Number of states:    86 Occupation:     0.00000002008657
 Energy Level:     0.3835065847 Number of states:    90 Occupation:     0.00000001081562
 Energy Level:     0.5513716444 Number of states:    47 Occupation:     0.00000000233642
 Energy Level:     0.7192367041 Number of states:    56 Occupation:     0.00000000145833
 Energy Level:     0.8871017638 Number of states:    98 Occupation:     0.00000000133284
 Energy Level:     1.0549668236 Number of states:    78 Occupation:     0.00000000079499
 Energy Level:     1.2228318833 Number of states:    54 Occupation:     0.00000000048227
 Energy Level:     1.3906969430 Number of states:    64 Occupation:     0.00000000036174
 Energy Level:     1.5585620027 Number of states:    69 Occupation:     0.00000000021222
 Energy Level:     1.7264270624 Number of states:    51 Occupation:     0.00000000017859
 Energy Level:     1.8942921221 Number of states:    73 Occupation:     0.00000000019607
 Energy Level:     2.0621571819 Number of states:    28 Occupation:     0.00000000012191
 Energy Level:     2.2300222416 Number of states:    10 Occupation:     0.00000000003819
 Energy Level:     2.3978873013 Number of states:    61 Occupation:     0.00000000026021
 Energy Level:     2.5657523610 Number of states:    36 Occupation:     0.00000000017556
 Energy Level:     2.7336174207 Number of states:    15 Occupation:     0.00000000009957
 Energy Level:     2.9014824804 Number of states:    42 Occupation:     0.00000000030384
 Energy Level:     3.0693475402 Number of states:    44 Occupation:     0.00000000028255
 Energy Level:     3.2372125999 Number of states:    29 Occupation:     0.00000000033084
 Energy Level:     3.4050776596 Number of states:    25 Occupation:     0.00000000025312
 Energy Level:     3.5729427193 Number of states:    14 Occupation:     0.00000000015387
 Energy Level:     3.7408077790 Number of states:    25 Occupation:     0.00000000053636
 Energy Level:     3.9086728387 Number of states:     4 Occupation:     0.00000000011854
 Energy Level:     4.0765378985 Number of states:     2 Occupation:     0.00000000000970
 Energy Level:     4.2444029582 Number of states:     0 Occupation:     0.00000000000000
 Energy Level:     4.4122680179 Number of states:    11 Occupation:     0.00000000001369
 Energy Level:     4.5801330776 Number of states:    20 Occupation:     0.00000000002162
 Energy Level:     4.7479981373 Number of states:     0 Occupation:     0.00000000000000
 Energy Level:     4.9158631970 Number of states:    22 Occupation:     0.00000000000247
 Energy Level:     5.0837282568 Number of states:    74 Occupation:     0.00000000001324
 Energy Level:     5.2515933165 Number of states:     0 Occupation:     0.00000000000000
 Energy Level:     5.4194583762 Number of states:     0 Occupation:     0.00000000000000
 Energy Level:     5.5873234359 Number of states:     0 Occupation:     0.00000000000000
 Energy Level:     5.7551884956 Number of states:     0 Occupation:     0.00000000000000
 Energy Level:     5.9230535553 Number of states:     0 Occupation:     0.00000000000000
 Energy Level:     6.0909186151 Number of states:     0 Occupation:     0.00000000000000
 Energy Level:     6.2587836748 Number of states:     0 Occupation:     0.00000000000000
 Energy Level:     6.4266487345 Number of states:     0 Occupation:     0.00000000000000
 Energy Level:     6.5945137942 Number of states:     0 Occupation:     0.00000000000000
 Energy Level:     6.7623788539 Number of states:     0 Occupation:     0.00000000000000
 Energy Level:     6.9302439136 Number of states:     0 Occupation:     0.00000000000000
 Energy Level:     7.0981089734 Number of states:     0 Occupation:     0.00000000000000
 Energy Level:     7.2659740331 Number of states:     0 Occupation:     0.00000000000000
 Energy Level:     7.4338390928 Number of states:     0 Occupation:     0.00000000000000
 Energy Level:     7.6017041525 Number of states:     0 Occupation:     0.00000000000000
 Energy Level:     7.7695692122 Number of states:     0 Occupation:     0.00000000000000
 Energy Level:     7.9374342719 Number of states:     0 Occupation:     0.00000000000000
 Energy Level:     8.1052993317 Number of states:     0 Occupation:     0.00000000000000
 Energy Level:     8.2731643914 Number of states:     0 Occupation:     0.00000000000000
 Energy Level:     8.4410294511 Number of states:     0 Occupation:     0.00000000000000
 Energy Level:     8.6088945108 Number of states:     0 Occupation:     0.00000000000000
 Energy Level:     8.7767595705 Number of states:     0 Occupation:     0.00000000000000
 Energy Level:     8.9446246302 Number of states:     0 Occupation:     0.00000000000000
 Energy Level:     9.1124896900 Number of states:     0 Occupation:     0.00000000000000
 Energy Level:     9.2803547497 Number of states:     0 Occupation:     0.00000000000000
 Energy Level:     9.4482198094 Number of states:     0 Occupation:     0.00000000000000
 Energy Level:     9.6160848691 Number of states:     0 Occupation:     0.00000000000000
 Energy Level:     9.7839499288 Number of states:     0 Occupation:     0.00000000000000
 Energy Level:     9.9518149885 Number of states:     0 Occupation:     0.00000000000000
 Energy Level:    10.1196800483 Number of states:     0 Occupation:     0.00000000000000
 Energy Level:    10.2875451080 Number of states:     0 Occupation:     0.00000000000000
 Energy Level:    10.4554101677 Number of states:     0 Occupation:     0.00000000000000
 Energy Level:    10.6232752274 Number of states:    80 Occupation:     0.00000000000103
 Energy Level:    10.7911402871 Number of states:     0 Occupation:     0.00000000000000
 Energy Level:    10.9590053468 Number of states:     0 Occupation:     0.00000000000000
 Energy Level:    11.1268704066 Number of states:     0 Occupation:     0.00000000000000
 Energy Level:    11.2947354663 Number of states:     0 Occupation:     0.00000000000000
 Energy Level:    11.4626005260 Number of states:     0 Occupation:     0.00000000000000
 Energy Level:    11.6304655857 Number of states:     0 Occupation:     0.00000000000000
 Energy Level:    11.7983306454 Number of states:     0 Occupation:     0.00000000000000
 Energy Level:    11.9661957051 Number of states:     0 Occupation:     0.00000000000000
 Energy Level:    12.1340607649 Number of states:     0 Occupation:     0.00000000000000
 Energy Level:    12.3019258246 Number of states:     0 Occupation:     0.00000000000000
 Energy Level:    12.4697908843 Number of states:     0 Occupation:     0.00000000000000
 Energy Level:    12.6376559440 Number of states:     0 Occupation:     0.00000000000000
 Energy Level:    12.8055210037 Number of states:     1 Occupation:     0.00000000000036
 Energy Level:    12.9733860634 Number of states:     0 Occupation:     0.00000000000000
 Energy Level:    13.1412511232 Number of states:     0 Occupation:     0.00000000000000
 Energy Level:    13.3091161829 Number of states:     0 Occupation:     0.00000000000000
 Energy Level:    13.4769812426 Number of states:     0 Occupation:     0.00000000000000
 Energy Level:    13.6448463023 Number of states:     6 Occupation:     0.00000000000175
 Energy Level:    13.8127113620 Number of states:     0 Occupation:     0.00000000000000
 Energy Level:    13.9805764217 Number of states:     0 Occupation:     0.00000000000000
 Energy Level:    14.1484414815 Number of states:     3 Occupation:     0.00000000000082
 Energy Level:    14.3163065412 Number of states:     5 Occupation:     0.00000000000140

 *** WARNING in qs_vxc.F:624 :: vdW functional contribution will be ignored ***

