# Projected DOS for atomic kind S at iteration step i = 0, E(Fermi) =    -0.154978 a.u.
#     MO Eigenvalue [a.u.]      Occupation                 s                 p                 d                 f
       1         -2.386267        2.000000        0.03636027        0.05538014        0.00084033        0.00734752
       2         -2.385653        2.000000        0.01383069        0.04436823        0.00284016        0.00868769
       3         -2.385538        2.000000        0.01181100        0.04297216        0.00295653        0.00861393
       4         -2.385468        2.000000        0.01375745        0.04355334        0.00235725        0.00815631
       5         -2.385340        2.000000        0.01064810        0.04131000        0.00293686        0.00849070
       6         -2.385266        2.000000        0.01166354        0.04269837        0.00265356        0.00820660
       7         -2.385150        2.000000        0.01085497        0.04128896        0.00263167        0.00878368
       8         -2.384861        2.000000        0.00413679        0.03888363        0.00553920        0.01033063
       9         -2.384751        2.000000        0.00294428        0.03928394        0.00617652        0.01034331
      10         -2.384695        2.000000        0.00249564        0.03189646        0.00377202        0.00940729
      11         -2.384463        2.000000        0.00284267        0.03867824        0.00616451        0.01061250
      12         -2.384318        2.000000        0.00421710        0.04012495        0.00607621        0.01083132
      13         -2.384182        2.000000        0.00236947        0.03149224        0.00385834        0.00982911
      14         -2.384042        2.000000        0.00290780        0.03562583        0.00528750        0.01081810
      15         -2.383847        2.000000        0.00396594        0.04165109        0.00682538        0.01195330
      16         -2.382974        2.000000        0.00448438        0.03674871        0.00463963        0.01006807
      17         -1.447748        2.000000        0.01212489        0.02661485        0.00237439        0.00294431
      18         -1.447443        2.000000        0.01179633        0.02597163        0.00225126        0.00301743
      19         -1.447380        2.000000        0.01166641        0.02601562        0.00222798        0.00296738
      20         -1.445496        2.000000        0.01481621        0.02801034        0.00237832        0.00354634
      21         -1.445332        2.000000        0.01411687        0.02855748        0.00290394        0.00401480
      22         -1.444479        2.000000        0.01304350        0.02732395        0.00287207        0.00420622
      23         -1.444108        2.000000        0.01321612        0.02733626        0.00275550        0.00404551
      24         -1.443655        2.000000        0.01171197        0.02696951        0.00340616        0.00442477
      25         -1.443547        2.000000        0.01115056        0.02695704        0.00353661        0.00462545
      26         -1.440685        2.000000        0.02191868        0.00682577        0.00146093        0.01004302
      27         -1.440577        2.000000        0.01177256        0.01617889        0.00426974        0.00711983
      28         -1.440205        2.000000        0.01083618        0.01524819        0.00410346        0.00694926
      29         -1.439875        2.000000        0.01118309        0.01472985        0.00443116        0.00771142
      30         -1.439584        2.000000        0.01050814        0.01699830        0.00481349        0.00825622
      31         -1.439402        2.000000        0.01033598        0.01800849        0.00469258        0.00865376
      32         -1.439299        2.000000        0.00892093        0.01679579        0.00495067        0.00802550
      33         -1.439176        2.000000        0.01168323        0.01933397        0.00491621        0.00941131
      34         -1.439109        2.000000        0.01061277        0.01760903        0.00470040        0.00888526
      35         -1.438915        2.000000        0.00873859        0.01819782        0.00546551        0.00893199
      36         -1.438750        2.000000        0.00933939        0.01644229        0.00446353        0.00778714
      37         -1.438592        2.000000        0.00765743        0.01650982        0.00503093        0.00784001
      38         -1.438570        2.000000        0.00942236        0.01737142        0.00472706        0.00865493
      39         -1.438261        2.000000        0.00565117        0.01730337        0.00563006        0.00807507
      40         -1.438149        2.000000        0.00778750        0.01748611        0.00479387        0.00834109
      41         -1.438095        2.000000        0.00679678        0.01623668        0.00489905        0.00748901
      42         -1.437917        2.000000        0.00501901        0.01658990        0.00559048        0.00769755
      43         -1.437711        2.000000        0.00238419        0.02153440        0.00817683        0.00878335
      44         -1.437485        2.000000        0.00237100        0.02073947        0.00742955        0.00811692
      45         -1.437426        2.000000        0.00234664        0.02013549        0.00734116        0.00795695
      46         -1.437172        2.000000        0.00266010        0.01943276        0.00695121        0.00799414
      47         -1.437110        2.000000        0.00221272        0.02068656        0.00752735        0.00832815
      48         -1.436974        2.000000        0.00211469        0.02120699        0.00732257        0.00824954
      49         -1.436897        2.000000        0.00198169        0.02115493        0.00762671        0.00842399
      50         -1.436783        2.000000        0.00218172        0.01942958        0.00722812        0.00791128
      51         -1.436669        2.000000        0.00195924        0.02124270        0.00752474        0.00859497
      52         -1.436245        2.000000        0.00244475        0.01413328        0.00504795        0.00667830
      53         -1.435894        2.000000        0.00265821        0.02052123        0.00748078        0.00872130
      54         -1.434987        2.000000        0.00025759        0.01030740        0.00560424        0.00798787
      55         -1.434796        2.000000        0.00063608        0.01046536        0.00547535        0.00778919
      56         -1.434460        2.000000        0.00056921        0.00996595        0.00498033        0.00728641
      57         -1.433334        2.000000        0.00026446        0.00716938        0.00536066        0.00950797
      58         -1.433262        2.000000        0.00027456        0.00761211        0.00532813        0.00916721
      59         -1.432990        2.000000        0.00039451        0.00698190        0.00507376        0.00920120
      60         -1.432608        2.000000        0.00015747        0.00675298        0.00477362        0.00878080
      61         -1.432339        2.000000        0.00028138        0.00704894        0.00474449        0.00857408
      62         -1.432110        2.000000        0.00019646        0.00673977        0.00463697        0.00863846
      63         -1.430897        2.000000        0.00019651        0.00368535        0.00464248        0.01008801
      64         -1.430679        2.000000        0.00023863        0.00356921        0.00429419        0.00966885
      65         -0.678756        2.000000        0.52354275        0.01287662        0.00140203        0.00024507
      66         -0.650196        2.000000        0.41288117        0.03683385        0.00064498        0.00107912
      67         -0.648231        2.000000        0.41332885        0.03666404        0.00067487        0.00103138
      68         -0.647054        2.000000        0.41657115        0.03694121        0.00067023        0.00101673
      69         -0.646105        2.000000        0.41527396        0.03646850        0.00063951        0.00101626
      70         -0.645668        2.000000        0.41460102        0.03566442        0.00066722        0.00102232
      71         -0.644226        2.000000        0.42079011        0.03658488        0.00064182        0.00098388
      72         -0.627533        2.000000        0.36342909        0.00716326        0.00100728        0.00019292
      73         -0.618680        2.000000        0.38107992        0.01662447        0.00143315        0.00120657
      74         -0.617777        2.000000        0.38283564        0.01713376        0.00150291        0.00121216
      75         -0.616632        2.000000        0.38632842        0.01694874        0.00140616        0.00114927
      76         -0.615559        2.000000        0.38837333        0.01652803        0.00136026        0.00118626
      77         -0.614014        2.000000        0.38962657        0.01777310        0.00141127        0.00116078
      78         -0.612539        2.000000        0.38782361        0.01697905        0.00151981        0.00117823
      79         -0.610432        2.000000        0.39495269        0.01899757        0.00187345        0.00120986
      80         -0.609165        2.000000        0.39362429        0.01795906        0.00179703        0.00123480
      81         -0.608722        2.000000        0.40000437        0.01805708        0.00185835        0.00124252
      82         -0.607849        2.000000        0.39459558        0.01655534        0.00169984        0.00109220
      83         -0.606984        2.000000        0.39776311        0.01727540        0.00180396        0.00112845
      84         -0.606140        2.000000        0.39518773        0.01632201        0.00172042        0.00097194
      85         -0.605626        2.000000        0.39253253        0.01444712        0.00152484        0.00152003
      86         -0.604646        2.000000        0.39203105        0.01373108        0.00160187        0.00167195
      87         -0.603320        2.000000        0.40028674        0.01571091        0.00171840        0.00103171
      88         -0.602759        2.000000        0.40622598        0.01619407        0.00170692        0.00096879
      89         -0.601623        2.000000        0.38199871        0.01070059        0.00170073        0.00196981
      90         -0.601083        2.000000        0.38128213        0.01109902        0.00162566        0.00216118
      91         -0.599853        2.000000        0.39007169        0.01317986        0.00221379        0.00149881
      92         -0.598578        2.000000        0.39584357        0.01324178        0.00258131        0.00115251
      93         -0.597036        2.000000        0.38499617        0.01055891        0.00146191        0.00218179
      94         -0.596257        2.000000        0.38181221        0.01021462        0.00145582        0.00225025
      95         -0.593581        2.000000        0.39279546        0.01126846        0.00158039        0.00192291
      96         -0.592229        2.000000        0.39002225        0.00995239        0.00129703        0.00210580
      97         -0.373407        2.000000        0.00812807        0.50589017        0.00849939        0.00354926
      98         -0.373009        2.000000        0.00808191        0.50943420        0.00814110        0.00361886
      99         -0.372621        2.000000        0.00815167        0.50991027        0.00812486        0.00362828
     100         -0.367374        2.000000        0.05374969        0.43295028        0.02631606        0.00421442
     101         -0.352959        2.000000        0.00452693        0.46917423        0.02239118        0.00449093
     102         -0.351735        2.000000        0.00523179        0.46938187        0.02342899        0.00447485
     103         -0.350306        2.000000        0.00448471        0.46680761        0.02333032        0.00449623
     104         -0.349739        2.000000        0.00695660        0.45869144        0.02408087        0.00433283
     105         -0.348461        2.000000        0.00494316        0.46592439        0.02378187        0.00455597
     106         -0.347976        2.000000        0.00993731        0.45002427        0.02630703        0.00483615
     107         -0.346328        2.000000        0.01004285        0.44043424        0.02464593        0.00482072
     108         -0.345914        2.000000        0.00996890        0.44422178        0.02494959        0.00483266
     109         -0.345376        2.000000        0.01162525        0.43361676        0.02453515        0.00483598
     110         -0.344869        2.000000        0.01582261        0.41193382        0.02956460        0.00540292
     111         -0.344140        2.000000        0.01253765        0.43246294        0.02416526        0.00476195
     112         -0.343947        2.000000        0.01225908        0.43360609        0.02494045        0.00463880
     113         -0.342776        2.000000        0.01018636        0.43903259        0.02172691        0.00485311
     114         -0.342166        2.000000        0.00942015        0.44071055        0.02121995        0.00464071
     115         -0.341481        2.000000        0.01152598        0.43861400        0.02175169        0.00468402
     116         -0.339871        2.000000        0.01345041        0.43504030        0.02330604        0.00468261
     117         -0.338477        2.000000        0.01070052        0.45902806        0.01574041        0.00457551
     118         -0.337903        2.000000        0.01173073        0.45116566        0.01755988        0.00487216
     119         -0.334962        2.000000        0.01518961        0.49459938        0.00486390        0.00456830
     120         -0.334022        2.000000        0.01318934        0.49142527        0.00726040        0.00439522
     121         -0.333300        2.000000        0.01328597        0.49097669        0.00721551        0.00440679
     122         -0.309502        2.000000        0.04291897        0.44388550        0.03750929        0.01096570
     123         -0.309096        2.000000        0.03979435        0.43799246        0.03812428        0.01102506
     124         -0.307728        2.000000        0.04101064        0.44503212        0.03731541        0.01112614
     125         -0.301182        2.000000        0.05021477        0.43648481        0.02285888        0.00857509
     126         -0.300513        2.000000        0.05343796        0.43552909        0.02334209        0.00881481
     127         -0.299907        2.000000        0.05361634        0.44139008        0.02277385        0.00857864
     128         -0.298883        2.000000        0.05012408        0.43732045        0.02344265        0.00890104
     129         -0.297345        2.000000        0.04502611        0.45980983        0.02200045        0.00830324
     130         -0.295031        2.000000        0.02046438        0.49938022        0.02022229        0.00692226
     131         -0.294689        2.000000        0.04171318        0.47737680        0.02009338        0.00747389
     132         -0.293606        2.000000        0.03718306        0.48062034        0.02051341        0.00764642
     133         -0.292948        2.000000        0.03582213        0.47584649        0.02076473        0.00808209
     134         -0.292254        2.000000        0.03549415        0.51059045        0.01751799        0.00651663
     135         -0.291074        2.000000        0.03647600        0.51637675        0.01602760        0.00658190
     136         -0.290286        2.000000        0.06383700        0.53204673        0.01175473        0.00573511
     137         -0.289440        2.000000        0.05605024        0.52231192        0.01241632        0.00591946
     138         -0.288454        2.000000        0.06336942        0.53621331        0.01157556        0.00570818
     139         -0.287546        2.000000        0.06209131        0.52828328        0.01192461        0.00576938
     140         -0.287163        2.000000        0.03659942        0.51207801        0.01747516        0.00752857
     141         -0.286150        2.000000        0.05195822        0.53536246        0.01223748        0.00566719
     142         -0.285452        2.000000        0.03895980        0.52406752        0.01528971        0.00683765
     143         -0.281662        2.000000        0.01853414        0.56728178        0.01869297        0.00520021
     144         -0.280764        2.000000        0.01298358        0.56920240        0.01931912        0.00627517
     145         -0.277892        2.000000        0.00889371        0.51377955        0.02342009        0.01391584
     146         -0.276733        2.000000        0.00815964        0.52424094        0.02339718        0.01263818
     147         -0.275719        2.000000        0.00974191        0.55090884        0.02082787        0.00946932
     148         -0.274592        2.000000        0.00993255        0.53485276        0.02098929        0.01145133
     149         -0.272758        2.000000        0.00653107        0.51958887        0.02351477        0.01378880
     150         -0.272118        2.000000        0.01045292        0.53952322        0.02452101        0.00952388
     151         -0.269770        2.000000        0.00670428        0.52285394        0.03228436        0.00999252
     152         -0.267711        2.000000        0.00841666        0.53816517        0.02878304        0.00896128
     153         -0.265939        2.000000        0.00450038        0.50179359        0.04371825        0.00839817
     154         -0.264609        2.000000        0.00284605        0.48529113        0.04640771        0.00889016
     155         -0.264325        2.000000        0.00363172        0.48536659        0.04398837        0.00971672
     156         -0.262664        2.000000        0.00260091        0.47826217        0.04764830        0.00958720
     157         -0.260166        2.000000        0.00225825        0.47327279        0.04704513        0.00997433
     158         -0.254609        2.000000        0.00181320        0.38068872        0.04169174        0.02064339
     159         -0.253159        2.000000        0.00109464        0.38138558        0.04272884        0.02033893
     160         -0.251258        2.000000        0.00142083        0.40375127        0.04108468        0.01941567
     161         -0.250265        2.000000        0.00137016        0.39639663        0.04183401        0.02026119
     162         -0.249422        2.000000        0.00209616        0.44058998        0.03980062        0.01735109
     163         -0.247027        2.000000        0.00237379        0.44593394        0.03814006        0.01742491
     164         -0.246049        2.000000        0.00276392        0.44172965        0.04030283        0.01736625
     165         -0.244398        2.000000        0.00233852        0.44930778        0.03809587        0.01731166
     166         -0.227822        2.000000        0.02860352        0.64693502        0.01254245        0.00867772
     167         -0.226875        2.000000        0.03184270        0.66944468        0.01182322        0.00817134
     168         -0.226117        2.000000        0.03009791        0.65466730        0.01423308        0.00893546
     169         -0.224510        2.000000        0.01658652        0.55794668        0.01986777        0.01320237
     170         -0.223634        2.000000        0.01324602        0.53677916        0.01876484        0.01429139
     171         -0.222544        2.000000        0.00452981        0.46745830        0.02240714        0.01710332
     172         -0.222281        2.000000        0.01808604        0.61357239        0.01317826        0.00973229
     173         -0.221106        2.000000        0.00921725        0.50679812        0.02078882        0.01548309
     174         -0.220804        2.000000        0.00572463        0.49136923        0.02110338        0.01606281
     175         -0.218235        2.000000        0.02769658        0.67518681        0.01437519        0.00826695
     176         -0.217336        2.000000        0.03422444        0.72417760        0.01076749        0.00577905
     177         -0.216906        2.000000        0.00669393        0.49883290        0.02421463        0.01557647
     178         -0.215759        2.000000        0.02966384        0.68097068        0.01660046        0.00775829
     179         -0.214574        2.000000        0.02492542        0.65083950        0.02115437        0.00914695
     180         -0.212899        2.000000        0.02702618        0.67990441        0.01772731        0.00749997
     181         -0.211341        2.000000        0.02029224        0.59902285        0.02755761        0.01070579
     182         -0.209025        2.000000        0.03253838        0.73451497        0.01159119        0.00556424
     183         -0.206606        2.000000        0.01012371        0.51245201        0.03826759        0.01442604
     184         -0.204846        2.000000        0.02930522        0.73252478        0.01624179        0.00509519
     185         -0.204362        2.000000        0.02860057        0.73397993        0.01623316        0.00558417
     186         -0.203601        2.000000        0.02975875        0.74130050        0.01730594        0.00464915
     187         -0.202167        2.000000        0.02867583        0.73030666        0.01724511        0.00565077
     188         -0.198954        2.000000        0.02928397        0.73896712        0.01731043        0.00522536
     189         -0.197407        2.000000        0.02676096        0.72685175        0.01717754        0.00604025
     190         -0.193960        2.000000        0.00896062        0.58778913        0.02113875        0.01490283
     191         -0.190913        2.000000        0.00448686        0.62195065        0.01416142        0.01370276
     192         -0.189565        2.000000        0.00534662        0.65443128        0.01267774        0.01208314
     193         -0.185643        2.000000        0.01547682        0.24402569        0.05447002        0.03063916
     194         -0.184571        2.000000        0.01526795        0.22815021        0.05678836        0.03146310
     195         -0.182713        2.000000        0.01382233        0.27823513        0.05342830        0.02946751
     196         -0.182304        2.000000        0.01632880        0.22668483        0.06285664        0.03260481
     197         -0.181069        2.000000        0.01368060        0.25542262        0.05238691        0.03001286
     198         -0.179889        2.000000        0.01442108        0.25823132        0.06156507        0.02962224
     199         -0.179184        2.000000        0.01485266        0.24528185        0.06347387        0.02947040
     200         -0.178342        2.000000        0.01221505        0.25111325        0.06281542        0.02805764
     201         -0.177513        2.000000        0.00803789        0.25185830        0.04497610        0.02900202
     202         -0.176186        2.000000        0.00789616        0.22462124        0.04361899        0.03099657
     203         -0.175633        2.000000        0.01422151        0.27028169        0.06704846        0.02713512
     204         -0.172101        2.000000        0.00573512        0.23062385        0.03508135        0.03081909
     205         -0.172069        2.000000        0.00758523        0.22570835        0.04563690        0.03015770
     206         -0.169287        2.000000        0.00451630        0.23601932        0.03200854        0.02994832
     207         -0.168166        2.000000        0.00487536        0.23445743        0.03431582        0.02972323
     208         -0.154978        2.000000        0.01164594        0.24982172        0.09643648        0.03291593
