ITEM: TIMESTEP
0
ITEM: NUMBER OF ENTRIES
0
ITEM: BOX BOUNDS pp pp pp
0.0000000000000000e+00 5.7600000000000001e+01
0.0000000000000000e+00 2.8800000000000001e+01
0.0000000000000000e+00 2.8800000000000001e+01
ITEM: ENTRIES index c_bdtAtompairs[1] c_bdtAtompairs[2] c_bdtDists
ITEM: TIMESTEP
1000
ITEM: NUMBER OF ENTRIES
0
ITEM: BOX BOUNDS pp pp pp
6.7686346233189099e-01 5.6923136537668107e+01
9.7581531449407073e-03 2.8790241846855061e+01
0.0000000000000000e+00 2.8800000000000001e+01
ITEM: ENTRIES index c_bdtAtompairs[1] c_bdtAtompairs[2] c_bdtDists
ITEM: TIMESTEP
2000
ITEM: NUMBER OF ENTRIES
0
ITEM: BOX BOUNDS pp pp pp
1.3378191417943384e+00 5.6262180858205660e+01
1.9509693682047313e-02 2.8780490306317954e+01
0.0000000000000000e+00 2.8800000000000001e+01
ITEM: ENTRIES index c_bdtAtompairs[1] c_bdtAtompairs[2] c_bdtDists
ITEM: TIMESTEP
3000
ITEM: NUMBER OF ENTRIES
0
ITEM: BOX BOUNDS pp pp pp
1.9832409063384202e+00 5.5616759093661578e+01
2.9254626092351365e-02 2.8770745373907648e+01
0.0000000000000000e+00 2.8800000000000001e+01
ITEM: ENTRIES index c_bdtAtompairs[1] c_bdtAtompairs[2] c_bdtDists
ITEM: TIMESTEP
4000
ITEM: NUMBER OF ENTRIES
0
ITEM: BOX BOUNDS pp pp pp
2.6134938371945320e+00 5.4986506162805469e+01
3.8992954853846844e-02 2.8761007045146155e+01
0.0000000000000000e+00 2.8800000000000001e+01
ITEM: ENTRIES index c_bdtAtompairs[1] c_bdtAtompairs[2] c_bdtDists
ITEM: TIMESTEP
5000
ITEM: NUMBER OF ENTRIES
0
ITEM: BOX BOUNDS pp pp pp
3.2289344353796650e+00 5.4371065564620338e+01
4.8724684441493339e-02 2.8751275315558509e+01
0.0000000000000000e+00 2.8800000000000001e+01
ITEM: ENTRIES index c_bdtAtompairs[1] c_bdtAtompairs[2] c_bdtDists
ITEM: TIMESTEP
6000
ITEM: NUMBER OF ENTRIES
0
ITEM: BOX BOUNDS pp pp pp
3.8299108233513564e+00 5.3770089176648646e+01
5.8449819327216095e-02 2.8741550180672785e+01
0.0000000000000000e+00 2.8800000000000001e+01
ITEM: ENTRIES index c_bdtAtompairs[1] c_bdtAtompairs[2] c_bdtDists
ITEM: TIMESTEP
7000
ITEM: NUMBER OF ENTRIES
0
ITEM: BOX BOUNDS pp pp pp
4.4167629419222720e+00 5.3183237058077729e+01
6.8168363979913951e-02 2.8731831636020086e+01
0.0000000000000000e+00 2.8800000000000001e+01
ITEM: ENTRIES index c_bdtAtompairs[1] c_bdtAtompairs[2] c_bdtDists
ITEM: TIMESTEP
8000
ITEM: NUMBER OF ENTRIES
0
ITEM: BOX BOUNDS pp pp pp
4.9898227425469166e+00 5.2610177257453088e+01
7.7880322865454585e-02 2.8722119677134547e+01
0.0000000000000000e+00 2.8800000000000001e+01
ITEM: ENTRIES index c_bdtAtompairs[1] c_bdtAtompairs[2] c_bdtDists
ITEM: TIMESTEP
9000
ITEM: NUMBER OF ENTRIES
0
ITEM: BOX BOUNDS pp pp pp
5.5494143750891292e+00 5.2050585624910873e+01
8.7585700446679307e-02 2.8712414299553320e+01
0.0000000000000000e+00 2.8800000000000001e+01
ITEM: ENTRIES index c_bdtAtompairs[1] c_bdtAtompairs[2] c_bdtDists
ITEM: TIMESTEP
10000
ITEM: NUMBER OF ENTRIES
0
ITEM: BOX BOUNDS pp pp pp
6.0958543711766700e+00 5.1504145628823331e+01
9.7284501183407812e-02 2.8702715498816591e+01
0.0000000000000000e+00 2.8800000000000001e+01
ITEM: ENTRIES index c_bdtAtompairs[1] c_bdtAtompairs[2] c_bdtDists
ITEM: TIMESTEP
11000
ITEM: NUMBER OF ENTRIES
0
ITEM: BOX BOUNDS pp pp pp
6.6294518232465611e+00 5.0970548176753439e+01
1.0697672953243345e-01 2.8693023270467567e+01
0.0000000000000000e+00 2.8800000000000001e+01
ITEM: ENTRIES index c_bdtAtompairs[1] c_bdtAtompairs[2] c_bdtDists
ITEM: TIMESTEP
12000
ITEM: NUMBER OF ENTRIES
0
ITEM: BOX BOUNDS pp pp pp
7.1505085593824385e+00 5.0449491440617564e+01
1.1666238994753116e-01 2.8683337610052469e+01
0.0000000000000000e+00 2.8800000000000001e+01
ITEM: ENTRIES index c_bdtAtompairs[1] c_bdtAtompairs[2] c_bdtDists
ITEM: TIMESTEP
13000
ITEM: NUMBER OF ENTRIES
0
ITEM: BOX BOUNDS pp pp pp
7.6593193140428886e+00 4.9940680685957112e+01
1.2634148687946070e-01 2.8673658513120539e+01
0.0000000000000000e+00 2.8800000000000001e+01
ITEM: ENTRIES index c_bdtAtompairs[1] c_bdtAtompairs[2] c_bdtDists
ITEM: TIMESTEP
14000
ITEM: NUMBER OF ENTRIES
0
ITEM: BOX BOUNDS pp pp pp
8.1561718947772590e+00 4.9443828105222742e+01
1.3601402477596025e-01 2.8663985975224040e+01
0.0000000000000000e+00 2.8800000000000001e+01
ITEM: ENTRIES index c_bdtAtompairs[1] c_bdtAtompairs[2] c_bdtDists
ITEM: TIMESTEP
15000
ITEM: NUMBER OF ENTRIES
0
ITEM: BOX BOUNDS pp pp pp
8.6413473450232825e+00 4.8958652654976717e+01
1.4568000808176082e-01 2.8654319991918239e+01
0.0000000000000000e+00 2.8800000000000001e+01
ITEM: ENTRIES index c_bdtAtompairs[1] c_bdtAtompairs[2] c_bdtDists
ITEM: TIMESTEP
16000
ITEM: NUMBER OF ENTRIES
0
ITEM: BOX BOUNDS pp pp pp
9.1151201030786115e+00 4.8484879896921392e+01
1.5533944123857496e-01 2.8644660558761426e+01
0.0000000000000000e+00 2.8800000000000001e+01
ITEM: ENTRIES index c_bdtAtompairs[1] c_bdtAtompairs[2] c_bdtDists
ITEM: TIMESTEP
17000
ITEM: NUMBER OF ENTRIES
0
ITEM: BOX BOUNDS pp pp pp
9.5777581573361665e+00 4.8022241842663831e+01
1.6499232868510810e-01 2.8635007671314892e+01
0.0000000000000000e+00 2.8800000000000001e+01
ITEM: ENTRIES index c_bdtAtompairs[1] c_bdtAtompairs[2] c_bdtDists
ITEM: TIMESTEP
18000
ITEM: NUMBER OF ENTRIES
0
ITEM: BOX BOUNDS pp pp pp
1.0029523197871109e+01 4.7570476802128894e+01
1.7463867485705845e-01 2.8625361325142944e+01
0.0000000000000000e+00 2.8800000000000001e+01
ITEM: ENTRIES index c_bdtAtompairs[1] c_bdtAtompairs[2] c_bdtDists
ITEM: TIMESTEP
19000
ITEM: NUMBER OF ENTRIES
0
ITEM: BOX BOUNDS pp pp pp
1.0470670764465185e+01 4.7129329235534819e+01
1.8427848418711862e-01 2.8615721515812883e+01
0.0000000000000000e+00 2.8800000000000001e+01
ITEM: ENTRIES index c_bdtAtompairs[1] c_bdtAtompairs[2] c_bdtDists
ITEM: TIMESTEP
20000
ITEM: NUMBER OF ENTRIES
0
ITEM: BOX BOUNDS pp pp pp
1.0901450391152173e+01 4.6698549608847827e+01
1.9391176110497402e-01 2.8606088238895026e+01
0.0000000000000000e+00 2.8800000000000001e+01
ITEM: ENTRIES index c_bdtAtompairs[1] c_bdtAtompairs[2] c_bdtDists
ITEM: TIMESTEP
21000
ITEM: NUMBER OF ENTRIES
0
ITEM: BOX BOUNDS pp pp pp
1.1322105747366194e+01 4.6277894252633807e+01
2.0353851003731246e-01 2.8596461489962689e+01
0.0000000000000000e+00 2.8800000000000001e+01
ITEM: ENTRIES index c_bdtAtompairs[1] c_bdtAtompairs[2] c_bdtDists
ITEM: TIMESTEP
22000
ITEM: NUMBER OF ENTRIES
0
ITEM: BOX BOUNDS pp pp pp
1.1732874775772734e+01 4.5867125224227266e+01
2.1315873540781941e-01 2.8586841264592181e+01
0.0000000000000000e+00 2.8800000000000001e+01
ITEM: ENTRIES index c_bdtAtompairs[1] c_bdtAtompairs[2] c_bdtDists
ITEM: TIMESTEP
23000
ITEM: NUMBER OF ENTRIES
0
ITEM: BOX BOUNDS pp pp pp
1.2133989826860317e+01 4.5466010173139686e+01
2.2277244163718421e-01 2.8577227558362818e+01
0.0000000000000000e+00 2.8800000000000001e+01
ITEM: ENTRIES index c_bdtAtompairs[1] c_bdtAtompairs[2] c_bdtDists
ITEM: TIMESTEP
24000
ITEM: NUMBER OF ENTRIES
0
ITEM: BOX BOUNDS pp pp pp
1.2525677790368990e+01 4.5074322209631013e+01
2.3237963314309873e-01 2.8567620366856900e+01
0.0000000000000000e+00 2.8800000000000001e+01
ITEM: ENTRIES index c_bdtAtompairs[1] c_bdtAtompairs[2] c_bdtDists
ITEM: TIMESTEP
25000
ITEM: NUMBER OF ENTRIES
0
ITEM: BOX BOUNDS pp pp pp
1.2908160223629949e+01 4.4691839776370053e+01
2.4198031434026354e-01 2.8558019685659737e+01
0.0000000000000000e+00 2.8800000000000001e+01
ITEM: ENTRIES index c_bdtAtompairs[1] c_bdtAtompairs[2] c_bdtDists
ITEM: TIMESTEP
26000
ITEM: NUMBER OF ENTRIES
0
ITEM: BOX BOUNDS pp pp pp
1.3281653476888890e+01 4.4318346523111110e+01
2.5157448964038487e-01 2.8548425510359614e+01
0.0000000000000000e+00 2.8800000000000001e+01
ITEM: ENTRIES index c_bdtAtompairs[1] c_bdtAtompairs[2] c_bdtDists
ITEM: TIMESTEP
27000
ITEM: NUMBER OF ENTRIES
0
ITEM: BOX BOUNDS pp pp pp
1.3646368815683994e+01 4.3953631184316009e+01
2.6116216345218091e-01 2.8538837836547820e+01
0.0000000000000000e+00 2.8800000000000001e+01
ITEM: ENTRIES index c_bdtAtompairs[1] c_bdtAtompairs[2] c_bdtDists
ITEM: TIMESTEP
28000
ITEM: NUMBER OF ENTRIES
0
ITEM: BOX BOUNDS pp pp pp
1.4002512540347766e+01 4.3597487459652235e+01
2.7074334018138341e-01 2.8529256659818618e+01
0.0000000000000000e+00 2.8800000000000001e+01
ITEM: ENTRIES index c_bdtAtompairs[1] c_bdtAtompairs[2] c_bdtDists
ITEM: TIMESTEP
29000
ITEM: NUMBER OF ENTRIES
0
ITEM: BOX BOUNDS pp pp pp
1.4350286102700299e+01 4.3249713897299706e+01
2.8031802423073610e-01 2.8519681975769263e+01
0.0000000000000000e+00 2.8800000000000001e+01
ITEM: ENTRIES index c_bdtAtompairs[1] c_bdtAtompairs[2] c_bdtDists
ITEM: TIMESTEP
30000
ITEM: NUMBER OF ENTRIES
0
ITEM: BOX BOUNDS pp pp pp
1.4689886220000004e+01 4.2910113779999996e+01
2.8988621999999964e-01 2.8510113780000001e+01
0.0000000000000000e+00 2.8800000000000001e+01
ITEM: ENTRIES index c_bdtAtompairs[1] c_bdtAtompairs[2] c_bdtDists
