 Entering Gaussian System, Link 0=g16
 Initial command:
 /opt/export//g16/l1.exe "/tmp/Gau-1453264.inp" -scrdir="/tmp/"
 Entering Link 1 = /opt/export//g16/l1.exe PID=   1453265.
  
 Copyright (c) 1988,1990,1992,1993,1995,1998,2003,2009,2016,
            Gaussian, Inc.  All Rights Reserved.
  
 This is part of the Gaussian(R) 16 program.  It is based on
 the Gaussian(R) 09 system (copyright 2009, Gaussian, Inc.),
 the Gaussian(R) 03 system (copyright 2003, Gaussian, Inc.),
 the Gaussian(R) 98 system (copyright 1998, Gaussian, Inc.),
 the Gaussian(R) 94 system (copyright 1995, Gaussian, Inc.),
 the Gaussian 92(TM) system (copyright 1992, Gaussian, Inc.),
 the Gaussian 90(TM) system (copyright 1990, Gaussian, Inc.),
 the Gaussian 88(TM) system (copyright 1988, Gaussian, Inc.),
 the Gaussian 86(TM) system (copyright 1986, Carnegie Mellon
 University), and the Gaussian 82(TM) system (copyright 1983,
 Carnegie Mellon University). Gaussian is a federally registered
 trademark of Gaussian, Inc.
  
 This software contains proprietary and confidential information,
 including trade secrets, belonging to Gaussian, Inc.
  
 This software is provided under written license and may be
 used, copied, transmitted, or stored only in accord with that
 written license.
  
 The following legend is applicable only to US Government
 contracts under FAR:
  
                    RESTRICTED RIGHTS LEGEND
  
 Use, reproduction and disclosure by the US Government is
 subject to restrictions as set forth in subparagraphs (a)
 and (c) of the Commercial Computer Software - Restricted
 Rights clause in FAR 52.227-19.
  
 Gaussian, Inc.
 340 Quinnipiac St., Bldg. 40, Wallingford CT 06492
  
  
 ---------------------------------------------------------------
 Warning -- This program may not be used in any manner that
 competes with the business of Gaussian, Inc. or will provide
 assistance to any competitor of Gaussian, Inc.  The licensee
 of this program is prohibited from giving any competitor of
 Gaussian, Inc. access to this program.  By using this program,
 the user acknowledges that Gaussian, Inc. is engaged in the
 business of creating and licensing software in the field of
 computational chemistry and represents and warrants to the
 licensee that it is not a competitor of Gaussian, Inc. and that
 it will not use this program in any manner prohibited above.
 ---------------------------------------------------------------
  

 Cite this work as:
 Gaussian 16, Revision A.03,
 M. J. Frisch, G. W. Trucks, H. B. Schlegel, G. E. Scuseria, 
 M. A. Robb, J. R. Cheeseman, G. Scalmani, V. Barone, 
 G. A. Petersson, H. Nakatsuji, X. Li, M. Caricato, A. V. Marenich, 
 J. Bloino, B. G. Janesko, R. Gomperts, B. Mennucci, H. P. Hratchian, 
 J. V. Ortiz, A. F. Izmaylov, J. L. Sonnenberg, D. Williams-Young, 
 F. Ding, F. Lipparini, F. Egidi, J. Goings, B. Peng, A. Petrone, 
 T. Henderson, D. Ranasinghe, V. G. Zakrzewski, J. Gao, N. Rega, 
 G. Zheng, W. Liang, M. Hada, M. Ehara, K. Toyota, R. Fukuda, 
 J. Hasegawa, M. Ishida, T. Nakajima, Y. Honda, O. Kitao, H. Nakai, 
 T. Vreven, K. Throssell, J. A. Montgomery, Jr., J. E. Peralta, 
 F. Ogliaro, M. J. Bearpark, J. J. Heyd, E. N. Brothers, K. N. Kudin, 
 V. N. Staroverov, T. A. Keith, R. Kobayashi, J. Normand, 
 K. Raghavachari, A. P. Rendell, J. C. Burant, S. S. Iyengar, 
 J. Tomasi, M. Cossi, J. M. Millam, M. Klene, C. Adamo, R. Cammi, 
 J. W. Ochterski, R. L. Martin, K. Morokuma, O. Farkas, 
 J. B. Foresman, and D. J. Fox, Gaussian, Inc., Wallingford CT, 2016.
 
 ******************************************
 Gaussian 16:  ES64L-G16RevA.03 25-Dec-2016
                13-Jun-2025 
 ******************************************
 %Chk=/scratch/gpfs/yp1065/TMD/pair_pot_Gaussian/N-Se/UCCSDTfull-N-Se-S2-ID2/d1.3
 1544/single_E.chk
 %Mem=20GB
 %NProcShared=14
 Will use up to   14 processors via shared memory.
 ----------------------------------------------------------------------
 # UCCSD(T,full)/aug-cc-pVQZ # Guess=Mix Int=(DKH,Grid=UltraFine) # SCF
 =XQC NoSymm geom=nocrowd
 ----------------------------------------------------------------------
 1/38=1,172=1/1;
 2/12=1,15=1,17=6,18=5,40=1/2;
 3/5=16,6=2,7=10,11=2,25=1,30=1,75=-5,91=4,116=2/1,2,3;
 4/13=-1/1;
 5/5=2,8=3,13=1,38=5/2,8;
 8/6=4,9=120000,10=90/1,4;
 9/5=7,14=2/13;
 6/7=2,8=2,9=2,10=2/1;
 99/5=1,9=1/99;
 ------------------------------------
 N - Se single point at R = 1.31544 A
 ------------------------------------
 Symbolic Z-matrix:
 Charge =  0 Multiplicity = 2
 N
 Se                   1     1.31544 
 
                          Input orientation:                          
 ---------------------------------------------------------------------
 Center     Atomic      Atomic             Coordinates (Angstroms)
 Number     Number       Type             X           Y           Z
 ---------------------------------------------------------------------
      1          7           0        0.000000    0.000000    0.000000
      2         34           0        0.000000    0.000000    1.315440
 ---------------------------------------------------------------------
 Symmetry turned off by external request.
 Stoichiometry    NSe(2)
 Framework group  C*V[C*(NSe)]
 Deg. of freedom     1
 Full point group                 C*V     NOp   4
 Rotational constants (GHZ):           0.0000000          24.5115836          24.5115836
 Standard basis: Aug-CC-pVQZ (5D, 7F)
   173 basis functions,   409 primitive gaussians,   224 cartesian basis functions
    21 alpha electrons       20 beta electrons
       nuclear repulsion energy        95.7430032529 Hartrees.
 NAtoms=    2 NActive=    2 NUniq=    2 SFac= 1.00D+00 NAtFMM=   60 NAOKFM=F Big=F
 Integral buffers will be    131072 words long.
 Raffenetti 2 integral format.
 Two-electron integral symmetry is turned off.
 FoFCou: FMM=F IPFlag=           0 FMFlag=           0 FMFlg1=           0
         NFxFlg=           0 DoJE=F BraDBF=T KetDBF=T FulRan=T
         wScrn=  0.000000 ICntrl=       600 IOpCl=  3 I1Cent=           6 NGrid=           0
         NMat0=    1 NMatS0=      2 NMatT0=    0 NMatD0=    1 NMtDS0=    0 NMtDT0=    0
 Symmetry not used in FoFCou.
 Finite nuclear repulsion energy        95.7430032529.
 Using DK2 one-electron Hamiltonian.
 One-electron integrals computed using PRISM.
 FoFCou: FMM=F IPFlag=           0 FMFlag=      100000 FMFlg1=           0
         NFxFlg=           0 DoJE=T BraDBF=F KetDBF=T FulRan=T
         wScrn=  0.000000 ICntrl=       500 IOpCl=  0 I1Cent=           4 NGrid=           0
         NMat0=    1 NMatS0=      1 NMatT0=    0 NMatD0=    1 NMtDS0=    0 NMtDT0=    0
 Symmetry not used in FoFCou.
 RelInt: Using uncontracted basis, NUnBas=   270 NBsUse=   270 0.100E-13 EigKep=  3.00D-05 EigRej= -1.00D+00
 NBasis=   173 RedAO= T EigKep=  3.16D-05  NBF=   173
 NBsUse=   173 1.00D-06 EigRej= -1.00D+00 NBFU=   173
 ExpMin= 2.66D-02 ExpMax= 1.50D+07 ExpMxC= 6.65D+03 IAcc=3 IRadAn=         5 AccDes= 0.00D+00
 Harris functional with IExCor=  205 and IRadAn=       5 diagonalized for initial guess.
 HarFok:  IExCor=  205 AccDes= 0.00D+00 IRadAn=         5 IDoV= 1 UseB2=F ITyADJ=14
 ICtDFT=  3500011 ScaDFX=  1.000000  1.000000  1.000000  1.000000
 FoFCou: FMM=F IPFlag=           0 FMFlag=      100000 FMFlg1=           0
         NFxFlg=           0 DoJE=T BraDBF=F KetDBF=T FulRan=T
         wScrn=  0.000000 ICntrl=       500 IOpCl=  0 I1Cent=   200000004 NGrid=           0
         NMat0=    1 NMatS0=      1 NMatT0=    0 NMatD0=    1 NMtDS0=    0 NMtDT0=    0
 Symmetry not used in FoFCou.
 Mixing orbitals, IMix= 1 IMixAn=  0 NRI=1 NE=   21 Coef=  7.07106781D-01  7.07106781D-01
 Mixing orbitals, IMix= 1 IMixAn=  0 NRI=1 NE=   20 Coef= -7.07106781D-01  7.07106781D-01
 Initial guess <Sx>= 0.0000 <Sy>= 0.0000 <Sz>= 0.5000 <S**2>= 1.0000 S= 0.6180
 Keep R1 and R2 ints in memory in canonical form, NReq=251512659.
 Requested convergence on RMS density matrix=1.00D-08 within  32 cycles.
 Requested convergence on MAX density matrix=1.00D-06.
 Requested convergence on             energy=1.00D-06.
 No special actions if energy rises.
 SCF Done:  E(UHF) =  -2475.02487918     A.U. after   22 cycles
            NFock= 22  Conv=0.48D-08     -V/T= 2.0021
 <Sx>= 0.0000 <Sy>= 0.0000 <Sz>= 0.5000 <S**2>= 0.7773 S= 0.5136
 <L.S>=  0.00000000000    
 Annihilation of the first spin contaminant:
 S**2 before annihilation     0.7773,   after     0.7506
 QCSCF skips out because SCF is already converged.
 Range of M.O.s used for correlation:     1   173
 NBasis=   173 NAE=    21 NBE=    20 NFC=     0 NFV=     0
 NROrb=    173 NOA=    21 NOB=    20 NVA=   152 NVB=   153

 **** Warning!!: The largest alpha MO coefficient is  0.43779861D+02


 **** Warning!!: The largest beta MO coefficient is  0.43860111D+02

 Semi-Direct transformation.
 ModeAB=           2 MOrb=            21 LenV=    2683188314
 LASXX=     49922691 LTotXX=    49922691 LenRXX=    49922691
 LTotAB=    51519573 MaxLAS=    91551600 LenRXY=    91551600
 NonZer=    99845382 LenScr=   150528000 LnRSAI=           0
 LnScr1=           0 LExtra=           0 Total=    292002291
 MaxDsk=          -1 SrtSym=           F ITran=            4
 JobTyp=1 Pass  1:  I=   1 to  21.
 (rs|ai) integrals will be sorted in core.
 ModeAB=           2 MOrb=            20 LenV=    2683188314
 LASXX=     47754145 LTotXX=    47754145 LenRXX=    87192000
 LTotAB=    38023560 MaxLAS=    87192000 LenRXY=    38023560
 NonZer=    95508290 LenScr=   144044032 LnRSAI=           0
 LnScr1=           0 LExtra=           0 Total=    269259592
 MaxDsk=          -1 SrtSym=           F ITran=            4
 JobTyp=2 Pass  1:  I=   1 to  20.
 (rs|ai) integrals will be sorted in core.
 Spin components of T(2) and E(2):
     alpha-alpha T2 =       0.1904848632D-01 E2=     -0.8810634327D-01
     alpha-beta  T2 =       0.1002445586D+00 E2=     -0.4237066109D+00
     beta-beta   T2 =       0.2067763123D-01 E2=     -0.8330263132D-01
 ANorm=    0.1067694093D+01
 E2 =    -0.5951155855D+00 EUMP2 =    -0.24756199947651D+04
 (S**2,0)=  0.77732D+00           (S**2,1)=  0.75911D+00
 E(PUHF)=      -0.24750305886D+04        E(PMP2)=      -0.24756238239D+04
 Keep R2 and R3 ints in memory in canonical form, NReq=251527884.
 CIDS: In Core Option IDoMem=           1.
 Iterations=  50 Convergence= 0.100D-06
 Produce multiple copies of IABC intergrals
 Iteration Nr.   1
 **********************
 DD1Dir will call FoFMem   1 times, MxPair=      1240
 NAB=   420 NAA=   210 NBB=   190.
 E(PMP3)=      -0.24756016647D+04
 MP4(R+Q)=  0.98257481D-02
 E3=        0.20353954D-01        EUMP3=      -0.24755996408D+04
 E4(DQ)=   -0.44342411D-02        UMP4(DQ)=   -0.24756040751D+04
 E4(SDQ)=  -0.14023683D-01        UMP4(SDQ)=  -0.24756136645D+04
 DE(Corr)= -0.56428831     E(Corr)=     -2475.5891675    
 NORM(A)=   0.10647114D+01
 Iteration Nr.   2
 **********************
 DD1Dir will call FoFMem   1 times, MxPair=      1240
 NAB=   420 NAA=   210 NBB=   190.
 DE(Corr)= -0.58370035     E(CORR)=     -2475.6085795     Delta=-1.94D-02
 NORM(A)=   0.10706850D+01
 Iteration Nr.   3
 **********************
 DD1Dir will call FoFMem   1 times, MxPair=      1240
 NAB=   420 NAA=   210 NBB=   190.
 DE(Corr)= -0.58287380     E(CORR)=     -2475.6077530     Delta= 8.27D-04
 NORM(A)=   0.10724958D+01
 Iteration Nr.   4
 **********************
 DD1Dir will call FoFMem   1 times, MxPair=      1240
 NAB=   420 NAA=   210 NBB=   190.
 DE(Corr)= -0.58414311     E(CORR)=     -2475.6090223     Delta=-1.27D-03
 NORM(A)=   0.10731572D+01
 Iteration Nr.   5
 **********************
 DD1Dir will call FoFMem   1 times, MxPair=      1240
 NAB=   420 NAA=   210 NBB=   190.
 DE(Corr)= -0.58429318     E(CORR)=     -2475.6091724     Delta=-1.50D-04
 NORM(A)=   0.10733875D+01
 Iteration Nr.   6
 **********************
 DD1Dir will call FoFMem   1 times, MxPair=      1240
 NAB=   420 NAA=   210 NBB=   190.
 DE(Corr)= -0.58433057     E(CORR)=     -2475.6092097     Delta=-3.74D-05
 NORM(A)=   0.10734311D+01
 Iteration Nr.   7
 **********************
 DD1Dir will call FoFMem   1 times, MxPair=      1240
 NAB=   420 NAA=   210 NBB=   190.
 DE(Corr)= -0.58434196     E(CORR)=     -2475.6092211     Delta=-1.14D-05
 NORM(A)=   0.10734414D+01
 Iteration Nr.   8
 **********************
 DD1Dir will call FoFMem   1 times, MxPair=      1240
 NAB=   420 NAA=   210 NBB=   190.
 DE(Corr)= -0.58433543     E(CORR)=     -2475.6092146     Delta= 6.53D-06
 NORM(A)=   0.10734427D+01
 Iteration Nr.   9
 **********************
 DD1Dir will call FoFMem   1 times, MxPair=      1240
 NAB=   420 NAA=   210 NBB=   190.
 DE(Corr)= -0.58433971     E(CORR)=     -2475.6092189     Delta=-4.29D-06
 NORM(A)=   0.10734449D+01
 Iteration Nr.  10
 **********************
 DD1Dir will call FoFMem   1 times, MxPair=      1240
 NAB=   420 NAA=   210 NBB=   190.
 DE(Corr)= -0.58433920     E(CORR)=     -2475.6092184     Delta= 5.18D-07
 NORM(A)=   0.10734462D+01
 Iteration Nr.  11
 **********************
 DD1Dir will call FoFMem   1 times, MxPair=      1240
 NAB=   420 NAA=   210 NBB=   190.
 DE(Corr)= -0.58433999     E(CORR)=     -2475.6092192     Delta=-7.97D-07
 NORM(A)=   0.10734471D+01
 Iteration Nr.  12
 **********************
 DD1Dir will call FoFMem   1 times, MxPair=      1240
 NAB=   420 NAA=   210 NBB=   190.
 DE(Corr)= -0.58434021     E(CORR)=     -2475.6092194     Delta=-2.12D-07
 NORM(A)=   0.10734476D+01
 Iteration Nr.  13
 **********************
 DD1Dir will call FoFMem   1 times, MxPair=      1240
 NAB=   420 NAA=   210 NBB=   190.
 DE(Corr)= -0.58434033     E(CORR)=     -2475.6092195     Delta=-1.21D-07
 NORM(A)=   0.10734479D+01
 Iteration Nr.  14
 **********************
 DD1Dir will call FoFMem   1 times, MxPair=      1240
 NAB=   420 NAA=   210 NBB=   190.
 DE(Corr)= -0.58434040     E(CORR)=     -2475.6092196     Delta=-7.37D-08
 NORM(A)=   0.10734481D+01
 Wavefunction amplitudes converged. E(Corr)=     -2475.6092196    
 Largest amplitude= 4.55D-02
