Lattice

        6750 atoms
        3375 bonds

           9 atom types
           1 bond types
           0      204.661 xlo xhi
           0      204.661 ylo yhi
           0      204.661 zlo zhi

Masses

           1     0.186924
           2     0.191323
           3            1
           4            1
           5            1
           6            1
           7            1
           8            1
           9            1

Atoms # bond

           1            1            1            0            0            0
           2            1            2            0            0      1.05451
           3            2            1      13.6441            0            0
           4            2            2      13.6441            0      1.05451
           5            3            1      27.2882            0            0
           6            3            2      27.2882            0      1.05451
           7            4            1      40.9323            0            0
           8            4            2      40.9323            0      1.05451
           9            5            1      54.5764            0            0
          10            5            2      54.5764            0      1.05451
          11            6            1      68.2205            0            0
          12            6            2      68.2205            0      1.05451
          13            7            1      81.8646            0            0
          14            7            2      81.8646            0      1.05451
          15            8            1      95.5087            0            0
          16            8            2      95.5087            0      1.05451
          17            9            1      109.153            0            0
          18            9            2      109.153            0      1.05451
          19           10            1      122.797            0            0
          20           10            2      122.797            0      1.05451
          21           11            1      136.441            0            0
          22           11            2      136.441            0      1.05451
          23           12            1      150.085            0            0
          24           12            2      150.085            0      1.05451
          25           13            1      163.729            0            0
          26           13            2      163.729            0      1.05451
          27           14            1      177.373            0            0
          28           14            2      177.373            0      1.05451
          29           15            1      191.017            0            0
          30           15            2      191.017            0      1.05451
          31           16            1            0      13.6441            0
          32           16            2            0      13.6441      1.05451
          33           17            1      13.6441      13.6441            0
          34           17            2      13.6441      13.6441      1.05451
          35           18            1      27.2882      13.6441            0
          36           18            2      27.2882      13.6441      1.05451
          37           19            1      40.9323      13.6441            0
          38           19            2      40.9323      13.6441      1.05451
          39           20            1      54.5764      13.6441            0
          40           20            2      54.5764      13.6441      1.05451
          41           21            1      68.2205      13.6441            0
          42           21            2      68.2205      13.6441      1.05451
          43           22            1      81.8646      13.6441            0
          44           22            2      81.8646      13.6441      1.05451
          45           23            1      95.5087      13.6441            0
          46           23            2      95.5087      13.6441      1.05451
          47           24            1      109.153      13.6441            0
          48           24            2      109.153      13.6441      1.05451
          49           25            1      122.797      13.6441            0
          50           25            2      122.797      13.6441      1.05451
          51           26            1      136.441      13.6441            0
          52           26            2      136.441      13.6441      1.05451
          53           27            1      150.085      13.6441            0
          54           27            2      150.085      13.6441      1.05451
          55           28            1      163.729      13.6441            0
          56           28            2      163.729      13.6441      1.05451
          57           29            1      177.373      13.6441            0
          58           29            2      177.373      13.6441      1.05451
          59           30            1      191.017      13.6441            0
          60           30            2      191.017      13.6441      1.05451
          61           31            1            0      27.2882            0
          62           31            2            0      27.2882      1.05451
          63           32            1      13.6441      27.2882            0
          64           32            2      13.6441      27.2882      1.05451
          65           33            1      27.2882      27.2882            0
          66           33            2      27.2882      27.2882      1.05451
          67           34            1      40.9323      27.2882            0
          68           34            2      40.9323      27.2882      1.05451
          69           35            1      54.5764      27.2882            0
          70           35            2      54.5764      27.2882      1.05451
          71           36            1      68.2205      27.2882            0
          72           36            2      68.2205      27.2882      1.05451
          73           37            1      81.8646      27.2882            0
          74           37            2      81.8646      27.2882      1.05451
          75           38            1      95.5087      27.2882            0
          76           38            2      95.5087      27.2882      1.05451
          77           39            1      109.153      27.2882            0
          78           39            2      109.153      27.2882      1.05451
          79           40            1      122.797      27.2882            0
          80           40            2      122.797      27.2882      1.05451
          81           41            1      136.441      27.2882            0
          82           41            2      136.441      27.2882      1.05451
          83           42            1      150.085      27.2882            0
          84           42            2      150.085      27.2882      1.05451
          85           43            1      163.729      27.2882            0
          86           43            2      163.729      27.2882      1.05451
          87           44            1      177.373      27.2882            0
          88           44            2      177.373      27.2882      1.05451
          89           45            1      191.017      27.2882            0
          90           45            2      191.017      27.2882      1.05451
          91           46            1            0      40.9323            0
          92           46            2            0      40.9323      1.05451
          93           47            1      13.6441      40.9323            0
          94           47            2      13.6441      40.9323      1.05451
          95           48            1      27.2882      40.9323            0
          96           48            2      27.2882      40.9323      1.05451
          97           49            1      40.9323      40.9323            0
          98           49            2      40.9323      40.9323      1.05451
          99           50            1      54.5764      40.9323            0
         100           50            2      54.5764      40.9323      1.05451
         101           51            1      68.2205      40.9323            0
         102           51            2      68.2205      40.9323      1.05451
         103           52            1      81.8646      40.9323            0
         104           52            2      81.8646      40.9323      1.05451
         105           53            1      95.5087      40.9323            0
         106           53            2      95.5087      40.9323      1.05451
         107           54            1      109.153      40.9323            0
         108           54            2      109.153      40.9323      1.05451
         109           55            1      122.797      40.9323            0
         110           55            2      122.797      40.9323      1.05451
         111           56            1      136.441      40.9323            0
         112           56            2      136.441      40.9323      1.05451
         113           57            1      150.085      40.9323            0
         114           57            2      150.085      40.9323      1.05451
         115           58            1      163.729      40.9323            0
         116           58            2      163.729      40.9323      1.05451
         117           59            1      177.373      40.9323            0
         118           59            2      177.373      40.9323      1.05451
         119           60            1      191.017      40.9323            0
         120           60            2      191.017      40.9323      1.05451
         121           61            1            0      54.5764            0
         122           61            2            0      54.5764      1.05451
         123           62            1      13.6441      54.5764            0
         124           62            2      13.6441      54.5764      1.05451
         125           63            1      27.2882      54.5764            0
         126           63            2      27.2882      54.5764      1.05451
         127           64            1      40.9323      54.5764            0
         128           64            2      40.9323      54.5764      1.05451
         129           65            1      54.5764      54.5764            0
         130           65            2      54.5764      54.5764      1.05451
         131           66            1      68.2205      54.5764            0
         132           66            2      68.2205      54.5764      1.05451
         133           67            1      81.8646      54.5764            0
         134           67            2      81.8646      54.5764      1.05451
         135           68            1      95.5087      54.5764            0
         136           68            2      95.5087      54.5764      1.05451
         137           69            1      109.153      54.5764            0
         138           69            2      109.153      54.5764      1.05451
         139           70            1      122.797      54.5764            0
         140           70            2      122.797      54.5764      1.05451
         141           71            1      136.441      54.5764            0
         142           71            2      136.441      54.5764      1.05451
         143           72            1      150.085      54.5764            0
         144           72            2      150.085      54.5764      1.05451
         145           73            1      163.729      54.5764            0
         146           73            2      163.729      54.5764      1.05451
         147           74            1      177.373      54.5764            0
         148           74            2      177.373      54.5764      1.05451
         149           75            1      191.017      54.5764            0
         150           75            2      191.017      54.5764      1.05451
         151           76            1            0      68.2205            0
         152           76            2            0      68.2205      1.05451
         153           77            1      13.6441      68.2205            0
         154           77            2      13.6441      68.2205      1.05451
         155           78            1      27.2882      68.2205            0
         156           78            2      27.2882      68.2205      1.05451
         157           79            1      40.9323      68.2205            0
         158           79            2      40.9323      68.2205      1.05451
         159           80            1      54.5764      68.2205            0
         160           80            2      54.5764      68.2205      1.05451
         161           81            1      68.2205      68.2205            0
         162           81            2      68.2205      68.2205      1.05451
         163           82            1      81.8646      68.2205            0
         164           82            2      81.8646      68.2205      1.05451
         165           83            1      95.5087      68.2205            0
         166           83            2      95.5087      68.2205      1.05451
         167           84            1      109.153      68.2205            0
         168           84            2      109.153      68.2205      1.05451
         169           85            1      122.797      68.2205            0
         170           85            2      122.797      68.2205      1.05451
         171           86            1      136.441      68.2205            0
         172           86            2      136.441      68.2205      1.05451
         173           87            1      150.085      68.2205            0
         174           87            2      150.085      68.2205      1.05451
         175           88            1      163.729      68.2205            0
         176           88            2      163.729      68.2205      1.05451
         177           89            1      177.373      68.2205            0
         178           89            2      177.373      68.2205      1.05451
         179           90            1      191.017      68.2205            0
         180           90            2      191.017      68.2205      1.05451
         181           91            1            0      81.8646            0
         182           91            2            0      81.8646      1.05451
         183           92            1      13.6441      81.8646            0
         184           92            2      13.6441      81.8646      1.05451
         185           93            1      27.2882      81.8646            0
         186           93            2      27.2882      81.8646      1.05451
         187           94            1      40.9323      81.8646            0
         188           94            2      40.9323      81.8646      1.05451
         189           95            1      54.5764      81.8646            0
         190           95            2      54.5764      81.8646      1.05451
         191           96            1      68.2205      81.8646            0
         192           96            2      68.2205      81.8646      1.05451
         193           97            1      81.8646      81.8646            0
         194           97            2      81.8646      81.8646      1.05451
         195           98            1      95.5087      81.8646            0
         196           98            2      95.5087      81.8646      1.05451
         197           99            1      109.153      81.8646            0
         198           99            2      109.153      81.8646      1.05451
         199          100            1      122.797      81.8646            0
         200          100            2      122.797      81.8646      1.05451
         201          101            1      136.441      81.8646            0
         202          101            2      136.441      81.8646      1.05451
         203          102            1      150.085      81.8646            0
         204          102            2      150.085      81.8646      1.05451
         205          103            1      163.729      81.8646            0
         206          103            2      163.729      81.8646      1.05451
         207          104            1      177.373      81.8646            0
         208          104            2      177.373      81.8646      1.05451
         209          105            1      191.017      81.8646            0
         210          105            2      191.017      81.8646      1.05451
         211          106            1            0      95.5087            0
         212          106            2            0      95.5087      1.05451
         213          107            1      13.6441      95.5087            0
         214          107            2      13.6441      95.5087      1.05451
         215          108            1      27.2882      95.5087            0
         216          108            2      27.2882      95.5087      1.05451
         217          109            1      40.9323      95.5087            0
         218          109            2      40.9323      95.5087      1.05451
         219          110            1      54.5764      95.5087            0
         220          110            2      54.5764      95.5087      1.05451
         221          111            1      68.2205      95.5087            0
         222          111            2      68.2205      95.5087      1.05451
         223          112            1      81.8646      95.5087            0
         224          112            2      81.8646      95.5087      1.05451
         225          113            1      95.5087      95.5087            0
         226          113            2      95.5087      95.5087      1.05451
         227          114            1      109.153      95.5087            0
         228          114            2      109.153      95.5087      1.05451
         229          115            1      122.797      95.5087            0
         230          115            2      122.797      95.5087      1.05451
         231          116            1      136.441      95.5087            0
         232          116            2      136.441      95.5087      1.05451
         233          117            1      150.085      95.5087            0
         234          117            2      150.085      95.5087      1.05451
         235          118            1      163.729      95.5087            0
         236          118            2      163.729      95.5087      1.05451
         237          119            1      177.373      95.5087            0
         238          119            2      177.373      95.5087      1.05451
         239          120            1      191.017      95.5087            0
         240          120            2      191.017      95.5087      1.05451
         241          121            1            0      109.153            0
         242          121            2            0      109.153      1.05451
         243          122            1      13.6441      109.153            0
         244          122            2      13.6441      109.153      1.05451
         245          123            1      27.2882      109.153            0
         246          123            2      27.2882      109.153      1.05451
         247          124            1      40.9323      109.153            0
         248          124            2      40.9323      109.153      1.05451
         249          125            1      54.5764      109.153            0
         250          125            2      54.5764      109.153      1.05451
         251          126            1      68.2205      109.153            0
         252          126            2      68.2205      109.153      1.05451
         253          127            1      81.8646      109.153            0
         254          127            2      81.8646      109.153      1.05451
         255          128            1      95.5087      109.153            0
         256          128            2      95.5087      109.153      1.05451
         257          129            1      109.153      109.153            0
         258          129            2      109.153      109.153      1.05451
         259          130            1      122.797      109.153            0
         260          130            2      122.797      109.153      1.05451
         261          131            1      136.441      109.153            0
         262          131            2      136.441      109.153      1.05451
         263          132            1      150.085      109.153            0
         264          132            2      150.085      109.153      1.05451
         265          133            1      163.729      109.153            0
         266          133            2      163.729      109.153      1.05451
         267          134            1      177.373      109.153            0
         268          134            2      177.373      109.153      1.05451
         269          135            1      191.017      109.153            0
         270          135            2      191.017      109.153      1.05451
         271          136            1            0      122.797            0
         272          136            2            0      122.797      1.05451
         273          137            1      13.6441      122.797            0
         274          137            2      13.6441      122.797      1.05451
         275          138            1      27.2882      122.797            0
         276          138            2      27.2882      122.797      1.05451
         277          139            1      40.9323      122.797            0
         278          139            2      40.9323      122.797      1.05451
         279          140            1      54.5764      122.797            0
         280          140            2      54.5764      122.797      1.05451
         281          141            1      68.2205      122.797            0
         282          141            2      68.2205      122.797      1.05451
         283          142            1      81.8646      122.797            0
         284          142            2      81.8646      122.797      1.05451
         285          143            1      95.5087      122.797            0
         286          143            2      95.5087      122.797      1.05451
         287          144            1      109.153      122.797            0
         288          144            2      109.153      122.797      1.05451
         289          145            1      122.797      122.797            0
         290          145            2      122.797      122.797      1.05451
         291          146            1      136.441      122.797            0
         292          146            2      136.441      122.797      1.05451
         293          147            1      150.085      122.797            0
         294          147            2      150.085      122.797      1.05451
         295          148            1      163.729      122.797            0
         296          148            2      163.729      122.797      1.05451
         297          149            1      177.373      122.797            0
         298          149            2      177.373      122.797      1.05451
         299          150            1      191.017      122.797            0
         300          150            2      191.017      122.797      1.05451
         301          151            1            0      136.441            0
         302          151            2            0      136.441      1.05451
         303          152            1      13.6441      136.441            0
         304          152            2      13.6441      136.441      1.05451
         305          153            1      27.2882      136.441            0
         306          153            2      27.2882      136.441      1.05451
         307          154            1      40.9323      136.441            0
         308          154            2      40.9323      136.441      1.05451
         309          155            1      54.5764      136.441            0
         310          155            2      54.5764      136.441      1.05451
         311          156            1      68.2205      136.441            0
         312          156            2      68.2205      136.441      1.05451
         313          157            1      81.8646      136.441            0
         314          157            2      81.8646      136.441      1.05451
         315          158            1      95.5087      136.441            0
         316          158            2      95.5087      136.441      1.05451
         317          159            1      109.153      136.441            0
         318          159            2      109.153      136.441      1.05451
         319          160            1      122.797      136.441            0
         320          160            2      122.797      136.441      1.05451
         321          161            1      136.441      136.441            0
         322          161            2      136.441      136.441      1.05451
         323          162            1      150.085      136.441            0
         324          162            2      150.085      136.441      1.05451
         325          163            1      163.729      136.441            0
         326          163            2      163.729      136.441      1.05451
         327          164            1      177.373      136.441            0
         328          164            2      177.373      136.441      1.05451
         329          165            1      191.017      136.441            0
         330          165            2      191.017      136.441      1.05451
         331          166            1            0      150.085            0
         332          166            2            0      150.085      1.05451
         333          167            1      13.6441      150.085            0
         334          167            2      13.6441      150.085      1.05451
         335          168            1      27.2882      150.085            0
         336          168            2      27.2882      150.085      1.05451
         337          169            1      40.9323      150.085            0
         338          169            2      40.9323      150.085      1.05451
         339          170            1      54.5764      150.085            0
         340          170            2      54.5764      150.085      1.05451
         341          171            1      68.2205      150.085            0
         342          171            2      68.2205      150.085      1.05451
         343          172            1      81.8646      150.085            0
         344          172            2      81.8646      150.085      1.05451
         345          173            1      95.5087      150.085            0
         346          173            2      95.5087      150.085      1.05451
         347          174            1      109.153      150.085            0
         348          174            2      109.153      150.085      1.05451
         349          175            1      122.797      150.085            0
         350          175            2      122.797      150.085      1.05451
         351          176            1      136.441      150.085            0
         352          176            2      136.441      150.085      1.05451
         353          177            1      150.085      150.085            0
         354          177            2      150.085      150.085      1.05451
         355          178            1      163.729      150.085            0
         356          178            2      163.729      150.085      1.05451
         357          179            1      177.373      150.085            0
         358          179            2      177.373      150.085      1.05451
         359          180            1      191.017      150.085            0
         360          180            2      191.017      150.085      1.05451
         361          181            1            0      163.729            0
         362          181            2            0      163.729      1.05451
         363          182            1      13.6441      163.729            0
         364          182            2      13.6441      163.729      1.05451
         365          183            1      27.2882      163.729            0
         366          183            2      27.2882      163.729      1.05451
         367          184            1      40.9323      163.729            0
         368          184            2      40.9323      163.729      1.05451
         369          185            1      54.5764      163.729            0
         370          185            2      54.5764      163.729      1.05451
         371          186            1      68.2205      163.729            0
         372          186            2      68.2205      163.729      1.05451
         373          187            1      81.8646      163.729            0
         374          187            2      81.8646      163.729      1.05451
         375          188            1      95.5087      163.729            0
         376          188            2      95.5087      163.729      1.05451
         377          189            1      109.153      163.729            0
         378          189            2      109.153      163.729      1.05451